<?xml version="1.0" encoding="UTF-8" standalone="no" ?>
<VTKFile byte_order="LittleEndian" type="UnstructuredGrid" version="0.1">
  <UnstructuredGrid>
    <Piece NumberOfCells="0" NumberOfPoints="1764">
      <PointData>
        <DataArray Name="velocities" NumberOfComponents="3" format="ascii" type="Float32">
        -0.477878 -0.903952 0.500112
        -0.319906 -0.910271 2.34906
        -0.081588 -0.850616 0.509118
        1.61123 -0.976838 -0.58381
        -0.537815 -0.482448 1.00841
        -1.0557 -0.544747 1.5635
        -0.572321 -1.29503 -0.0101656
        -0.847311 -0.829904 -0.999059
        -0.0733181 -0.0100111 0.403938
        -0.44963 -0.897573 -0.831473
        0.710175 -2.08767 -0.507674
        -0.291441 -1.62779 0.0614422
        -0.617708 -1.36298 0.902647
        0.289244 -2.01176 -0.207042
        -0.160076 -2.41007 -0.269676
        -1.749 -0.196634 -2.16074
        0.244302 -1.05547 0.364427
        0.3315 -1.44565 0.0223099
        0.083661 -0.77868 0.255882
        0.411087 -1.75318 -0.189309
        -0.27484 -1.3555 0.449686
        0.68867 -0.772669 -0.385583
        0.70349 -1.81935 -0.66272
        -0.263779 -1.34218 -0.982488
        -0.957109 0.0593126 0.0779841
        0.524142 -2.12747 0.718156
        -0.48324 -1.91264 -1.13151
        0.029487 -2.13772 0.976763
        -0.282827 -1.42614 0.923002
        0.517951 -1.49653 -0.370873
        0.7784 -1.05399 0.735906
        -0.0426464 -2.19073 -0.912011
        0.430355 -1.82603 -0.820839
        -1.20704 -1.42397 -0.372159
        -0.20071 -1.00077 0.618907
        -1.52433 -2.51984 0.745894
        -0.705262 -1.91822 -0.616731
        0.474527 -0.202364 -0.670746
        0.440759 -0.138402 -0.705003
        0.426634 -1.65601 2.05424
        0.141387 -2.72212 -1.90917
        0.263564 -2.31563 -0.0389789
        -0.120717 -0.89621 -0.858037
        0.615055 -0.473351 0.924841
        -0.0817642 -0.849732 0.292387
        0.43657 -1.03316 0.417698
        0.303019 -0.697887 -1.39094
        -0.350649 -0.84583 -0.0627258
        0.879173 -0.408068 -0.0429115
        -1.6924 -2.77682 0.603693
        0.186236 -1.53785 0.132882
        -1.05582 -1.72175 -0.0694049
        0.110386 -1.01932 0.894085
        -0.208471 -1.00732 0.0719972
        -0.788884 -1.42608 -0.26741
        -0.37532 -1.46827 0.859037
        0.543102 -0.542841 0.130551
        0.917019 -0.894538 0.759362
        -0.172362 -1.54298 -0.367964
        0.994197 -1.23993 0.406631
        -1.21758 -1.78819 -1.23252
        0.171773 -1.57399 0.610785
        0.815367 -0.814023 -0.41553
        -0.79719 -2.0615 0.32412
        1.21925 -0.446329 -0.594389
        -0.240763 0.408078 -0.618167
        0.579227 -0.926774 0.752415
        0.834124 -1.07937 -0.389929
        -0.0825389 -1.01597 0.539339
        0.714114 -1.53587 -0.588506
        0.138773 -0.347023 0.410048
        0.777181 0.0780624 -0.255465
        0.898288 -1.77659 0.403466
        -0.367523 -1.39039 0.203415
        0.836452 -1.38653 0.230051
        -0.130226 -0.519066 -0.418956
        0.987308 -0.942529 0.232554
        -0.251496 -0.790429 0.271587
        0.442731 -1.41243 -0.431203
        0.0401154 -2.3015 0.954659
        0.607597 -1.58374 -0.0815743
        -0.18628 -1.702 0.0462027
        0.854043 -0.762183 -0.496661
        -0.00895184 -0.571887 -0.507415
        -0.875169 -0.651269 -0.251764
        0.182622 -0.533603 0.296803
        1.23972 -1.92998 0.134887
        0.911642 -1.22046 -0.454714
        1.77461 0.163349 -0.439877
        0.0647956 -0.732389 0.271224
        -1.04065 -0.208554 -0.538348
        -0.349996 -2.30476 -1.22292
        -0.338883 -2.16504 -0.473573
        -0.107547 -1.53739 0.345259
        0.185815 -0.593123 0.639495
        0.146612 -1.31855 1.24137
        -1.17723 -0.658267 -0.154824
        -1.04224 -1.24241 -0.313772
        -0.513738 -0.438745 -1.52566
        -0.08486 -1.91156 -0.153505
        -0.298024 -1.4589 -0.553092
        -0.257531 -1.20971 -0.685562
        -0.791392 -1.5869 0.346213
        0.094502 -1.79751 0.687103
        -0.211556 -1.88061 -0.448473
        -0.212541 -1.59312 0.441601
        -1.54347 -0.619311 -0.326396
        1.01751 -0.81953 -0.202095
        0.47733 -2.55194 -0.138802
        0.76477 -1.0686 0.864714
        -1.15472 -1.27799 0.88247
        -0.233632 -1.75198 -0.324604
        0.168862 -1.48444 -0.652483
        -0.342334 -1.11872 -0.576189
        0.499586 -2.1861 -0.999757
        -0.571781 -1.00168 -0.159548
        0.417206 0.11032 -0.92024
        -0.192367 -0.943165 2.17654
        0.0129386 -0.923227 -0.0445788
        0.967118 -2.08708 0.566196
        -0.270473 -1.28462 -1.12075
        0.647261 -2.24368 0.196353
        -0.13928 -1.37733 -0.34828
        -0.0144642 -1.40369 -0.0567274
        -1.11978 -0.11172 0.993886
        0.862763 -2.55063 -0.370768
        0.197497 -2.25619 -1.23144
        -1.67661 -2.14749 -0.566968
        1.31302 -1.56121 0.214829
        0.828198 -0.509762 0.564311
        0.0670721 -1.98744 0.936745
        -0.920188 0.0897989 0.649756
        0.533397 -1.72646 -0.819918
        0.144078 -1.61174 -0.923535
        -0.64193 -2.60795 0.113853
        -0.111313 -1.17794 -0.791336
        0.232546 -1.71776 -0.482962
        -0.747914 -2.4457 0.0423354
        0.105493 -0.899031 0.409567
        0.148376 -1.44239 0.0430622
        -0.155536 -1.94889 0.754249
        -1.10565 -0.293115 -0.148726
        0.874363 -0.963452 0.289377
        0.0247614 -0.315863 -0.725989
        -0.910118 0.166917 -1.26889
        -0.175958 -1.37879 0.73132
        1.08293 -0.870222 1.18455
        0.00754748 0.821877 0.00280203
        -1.50437 -0.986572 -0.508395
        -0.28776 -0.224927 -1.11059
        -1.00242 -0.159092 -1.03307
        2.17374 -1.21347 -0.88454
        -0.732448 -1.2875 -0.775285
        0.075397 -1.50995 0.521281
        -1.72088 -1.22704 0.532936
        0.525276 -1.87588 -0.827089
        -0.0860259 -0.308408 -0.406794
        -0.0423981 0.0965333 -0.157536
        0.147387 -0.766906 0.907958
        -0.227303 0.00166587 -0.246165
        0.765216 -1.01849 0.0293044
        -0.140331 -0.938875 -0.389154
        0.897683 -2.59507 0.351612
        -0.454125 -0.34151 0.0899968
        -1.14259 -0.701919 -1.57744
        0.509983 -0.907002 -0.653427
        -1.29192 -1.5619 1.34084
        -1.19241 -0.437789 -0.912622
        -1.26182 -1.48283 0.46777
        -0.0508863 -1.58133 -0.673545
        -0.535373 -0.560595 0.0638795
        -0.243171 -0.909808 -0.731552
        0.413516 -0.949486 0.279453
        -0.811035 -1.41092 0.784005
        -1.03101 0.0496379 0.0294272
        -0.707165 -2.6749 -0.582971
        -0.0198858 -1.55019 -0.088874
        -0.401468 -0.337352 -0.491487
        0.487321 -0.315943 0.979375
        0.784757 -0.321771 -0.100401
        -0.0694753 0.610317 1.58024
        -0.447034 0.963022 -0.11759
        -0.753106 -0.511695 -0.162134
        -0.363213 0.324483 -0.307267
        -0.154793 1.58662 0.235773
        0.108552 0.10178 -0.833192
        0.35317 1.40646 -0.6752
        -0.73579 0.378101 -0.156908
        -1.44456 0.75866 -0.144644
        1.23213 1.46351 0.194687
        0.5976 1.68968 1.18002
        -0.353139 1.30315 0.558798
        0.209168 -0.237837 0.695151
        -0.883087 1.54848 0.842356
        -0.0430189 0.454522 -0.150514
        -0.598211 0.455837 -0.10729
        0.637735 0.280702 0.504134
        0.729237 0.0915149 -0.0519167
        0.690578 0.68929 0.245319
        1.70678 2.21477 1.47201
        2.04523 0.897468 -0.369133
        0.303888 1.04849 -0.957964
        -0.0973304 0.103603 -0.953579
        -0.310178 2.14918 -0.180389
        0.740657 1.58587 0.910964
        -0.187894 1.3912 -0.930511
        -0.526889 2.29278 0.869778
        -0.414684 1.95914 -0.448766
        0.616797 0.830209 0.189682
        -0.541515 2.19189 0.183449
        -0.0786076 1.17663 -0.872391
        0.473587 0.993492 0.793128
        0.168377 1.57583 -0.492641
        1.01435 3.35722 -0.398346
        -0.218937 1.46391 0.935721
        0.4597 1.72813 -0.392021
        0.33738 0.980162 0.88199
        -0.176048 2.99681 0.0126616
        0.687551 0.826343 -0.22142
        0.463468 1.40077 0.330581
        0.476727 0.0751232 -0.266523
        -0.91659 1.09369 0.427054
        -0.367286 -0.306375 -0.813799
        1.08778 2.18546 0.742197
        0.537258 1.18299 -0.334294
        0.231365 2.49318 -0.497741
        0.254247 2.23738 0.515773
        -1.03366 0.438198 -0.0929848
        -0.144919 0.672033 -0.997223
        0.234866 3.37228 1.23765
        0.455656 2.325 -1.07558
        0.262388 0.832515 -0.723962
        -0.199584 0.797876 1.08254
        -0.944403 0.500034 0.451679
        0.789319 1.18678 -0.523286
        -0.0975671 1.5539 0.879699
        0.454321 0.060224 -0.0675991
        -0.0161991 1.85412 -0.635828
        -1.20735 0.693959 0.472048
        -0.295374 2.83768 -1.11543
        -0.259637 2.4079 -1.06278
        -1.28919 0.618544 -0.18903
        -0.251902 1.59182 -0.907141
        -0.517452 2.10896 0.374575
        -1.01726 0.956978 1.25869
        -1.0253 0.256212 0.205006
        0.276456 2.42784 1.0174
        -0.339786 2.58177 1.43334
        -1.5487 1.12313 -1.31253
        1.79759 0.875509 1.03116
        -0.882367 1.32038 0.254069
        -0.95417 1.54009 -1.01748
        -0.0624797 0.498338 0.328797
        -0.491139 0.909693 -0.0926508
        0.628738 1.30589 0.0831222
        0.797202 1.42388 0.369827
        -0.761334 1.464 -0.107541
        1.40266 0.321568 -0.584226
        0.828631 2.06244 0.434782
        -1.01218 0.133834 -0.348108
        -0.236623 2.36316 -0.487488
        -1.24039 2.38679 1.06555
        0.149723 2.44619 0.533717
        0.613236 0.698382 -0.035752
        0.266424 1.70431 -0.0382847
        -0.410768 0.0198548 -0.296504
        0.540318 0.632774 0.458838
        1.33117 1.92652 -0.340801
        0.5724 2.61889 -0.397621
        -0.251443 1.56875 -0.679339
        0.755094 2.27428 1.06316
        -0.542871 2.1365 -0.123757
        -0.950358 2.15539 0.70738
        -1.25914 2.86993 -0.62622
        -0.685696 1.23855 0.77767
        0.382878 0.342833 -0.614994
        0.302044 0.631708 2.03758
        -0.265087 1.19235 1.15141
        -0.37969 1.85103 -0.594253
        0.0590171 3.5422 -1.07859
        -0.981538 1.77556 0.0364244
        0.924887 0.941201 -0.949189
        -0.151219 2.27687 0.770436
        -0.388551 0.888616 0.508699
        -1.97375 1.55714 -0.673313
        -0.697852 1.16254 -0.695702
        0.665969 2.64461 -0.792433
        -0.224926 0.466087 -0.982797
        0.594288 1.37211 -0.835782
        -0.252612 1.98682 -0.137877
        -0.544223 1.57837 -0.206618
        0.279043 0.727147 -0.641013
        1.22372 0.611915 0.219518
        -0.67529 0.107985 -1.41953
        0.134021 0.156044 0.184515
        -0.614978 1.66547 0.397036
        -0.0555666 2.15895 1.11516
        -0.60224 0.945476 -0.0845676
        -0.236989 2.60291 0.993619
        -0.120137 1.08925 0.724977
        -0.0144525 0.388391 0.536566
        0.616078 1.24064 -1.48513
        -0.300473 2.73557 -0.578742
        0.613961 1.02454 -0.112406
        -0.585834 0.782776 0.448172
        -0.585555 1.47198 1.1392
        -0.429313 2.18005 0.380926
        0.178504 1.30572 0.295909
        -0.646012 2.65275 -0.858249
        -2.27668 0.968497 -0.391754
        0.753646 0.0672416 -0.00449229
        1.67885 1.15718 0.346159
        0.568396 0.524775 -0.0583683
        -0.754564 1.16427 -0.0335266
        1.15836 1.48067 -0.0290102
        -0.510627 2.30849 0.00291524
        -0.084602 2.22183 1.20044
        -0.153217 1.79253 -0.33747
        -0.452144 1.54276 0.619492
        -0.277979 2.22717 -0.418981
        -0.173059 0.172824 -0.042256
        -0.248638 0.617816 -0.253666
        0.156075 0.898305 -1.10776
        -0.227611 1.01345 0.255284
        -0.796865 1.53712 -0.735282
        -0.208141 1.6456 0.0872461
        0.711618 1.0797 1.29937
        -0.19686 0.274166 0.716476
        0.710937 -0.204036 -0.672221
        0.639057 2.71838 -0.181449
        0.655644 1.00593 0.516433
        -1.55645 1.67948 -0.286384
        0.168682 -0.0150013 0.85965
        0.130596 1.72212 -0.822461
        -0.279637 1.26791 -0.762132
        0.851234 1.33257 0.040088
        0.774319 1.7228 -0.497718
        0.725098 1.63151 -0.547113
        -0.0919644 1.5164 -0.0895298
        1.74307 1.38577 0.442127
        -0.727116 0.548288 0.350468
        -0.0437733 1.13378 -0.0576356
        0.536175 1.80305 -0.689417
        -1.2243 1.96493 0.351043
        -1.74941 1.41363 0.884968
        -0.261395 1.21758 0.250982
        0.876243 2.41072 0.403105
        -1.71449 1.42784 -0.734229
        -0.0665541 -0.251612 0.242445
        -0.64703 1.14658 -0.0635746
        -0.901294 2.05331 -0.938588
        0.31895 0.889918 0.988838
        1.4687 0.815443 1.25205
        -0.489074 1.92971 -0.714058
        1.02488 1.14183 -0.945219
        0.151795 0.300756 0.224921
        -1.51761 2.24721 -0.0433361
        0.427384 1.05584 0.395221
        -0.826711 1.54131 0.187428
        0.110848 1.71987 -0.0417994
        0.068327 0.593019 -1.7813
        -0.115963 1.15524 -0.451779
        -0.0562572 0.602179 0.68035
        -0.310951 0.76585 0.0741298
        0.192644 1.38959 0.493945
        -0.565448 1.10632 0.329581
        -0.579287 2.12618 -0.204966
        0.924986 -1.76068 -0.412088
        0.0305623 -2.41785 1.17893
        0.687834 -3.05342 -0.00763953
        0.580844 -1.37255 -0.452171
        -0.0522629 -1.87599 -0.466532
        0.599898 -0.545162 0.539406
        -0.824125 -1.57299 0.975272
        -0.543585 1.17041 -1.3143
        0.55579 -1.3473 -0.435104
        0.512493 -1.61213 -0.430589
        -0.527657 0.946036 0.864093
        0.674125 -1.09681 0.076132
        -0.0836673 -0.0407977 0.188437
        0.233197 -1.70466 0.682952
        -0.676685 -1.95412 1.28534
        1.11106 -1.69688 -0.654733
        0.669813 -2.11709 0.585339
        0.887213 -1.84946 1.4558
        -0.626358 -1.418 -0.128722
        -0.65604 -0.0518576 -0.321878
        0.505009 -2.15371 -0.888883
        0.430227 -2.25704 1.95465
        -0.192085 -0.658682 -0.10926
        0.512574 -1.96647 -0.376601
        0.0429192 -1.47469 -0.0930675
        -0.458058 -2.1618 0.0940178
        0.0437836 -0.826212 0.62683
        -0.635153 -1.8093 -0.635788
        -0.209928 -2.37826 -1.09309
        -1.07487 -0.933306 0.526984
        -2.3378 -1.27424 -0.205546
        0.659696 -1.27464 1.22809
        -0.314536 -1.09599 -0.125831
        0.576391 -1.29376 -0.448073
        -0.00604082 -0.914229 0.289334
        1.10126 -1.02329 0.722038
        -1.2291 -2.31344 -0.317243
        1.17099 -0.864094 0.297658
        0.583634 -1.27258 -0.926322
        -0.262881 -0.702995 0.427931
        -0.5594 -1.7273 -0.157675
        -0.562719 -1.79467 1.22045
        1.54412 -1.54385 0.045574
        0.0163299 -2.01699 -0.194685
        -0.156825 -1.00897 0.192647
        0.504082 -2.56982 0.0740309
        -0.407455 -0.848161 -0.294192
        0.264517 -1.14763 -0.368727
        0.327692 -2.14839 -0.611795
        0.262185 -1.707 -0.355067
        -0.0673108 -2.31891 -0.657277
        -0.239811 -0.841131 0.782815
        0.424547 -1.39098 -0.955775
        1.05438 -1.25961 0.0833569
        0.237853 -1.34526 -0.157313
        0.345644 -1.18286 0.0633796
        0.191902 -1.40409 0.254037
        0.112433 -0.592218 0.575997
        -0.263455 0.103645 0.0195719
        0.469558 -1.10955 -0.801623
        -0.69189 -1.77746 -0.400174
        -0.131025 -0.739725 0.514568
        -1.55832 -0.17624 0.591151
        1.07568 -2.00023 1.37959
        0.964311 -1.27626 0.288675
        -0.00317659 -1.39447 -1.17056
        -0.76327 -0.615954 0.578691
        -0.951738 -1.8974 -0.810725
        -0.503685 -0.645678 -1.16633
        -0.994747 -1.57963 -0.994551
        -0.68625 -2.13071 -0.450318
        0.135752 -0.431297 -1.12646
        -0.803828 -0.704278 0.124881
        -0.835913 -1.9921 -0.878876
        -0.108112 -1.20792 -0.36993
        -0.327636 -1.41662 -0.236374
        1.4517 -1.64912 -0.201115
        -0.308313 -1.6049 -0.626094
        -1.25366 -1.64717 -0.139897
        -1.30991 -0.700829 -0.172591
        0.492603 -1.06287 -0.529357
        -1.73161 -1.71844 0.744267
        0.569973 -2.07267 0.394394
        -1.09938 -0.981165 -0.581168
        0.304579 -2.73672 -0.491674
        -0.0901523 -0.854494 0.110163
        0.601141 -1.19632 -0.388194
        -0.888529 -1.70647 -0.0275338
        0.128625 -1.87541 -0.597745
        -0.585784 -0.278055 -0.900546
        -1.29699 -1.10381 0.12731
        0.189948 -1.48071 -0.802947
        0.54416 -1.02481 1.07605
        -0.101099 -2.19254 -0.359824
        0.301338 -0.229992 0.370269
        1.08739 -1.70073 -0.439152
        1.55189 -0.0158109 -0.700525
        0.855941 -0.822238 -0.175107
        -0.344999 -0.832747 -0.491327
        -1.36818 -2.99382 -0.359207
        0.162806 -0.46492 -0.924991
        0.144415 -0.946551 -0.222966
        0.296246 -0.706051 0.381354
        -0.116404 -0.451744 -0.165883
        0.772045 -2.67249 -1.00943
        -0.709818 -0.627475 -0.123482
        0.273392 -1.09138 0.50115
        0.037868 -1.99158 -0.419628
        1.01086 -0.304465 0.491323
        -0.00252429 -0.92419 0.594704
        0.0258636 -1.43976 1.2706
        1.87692 -1.69896 -0.492139
        -0.242053 -0.874462 -0.888204
        -0.286307 -1.07867 -1.30903
        -0.0503152 -1.35954 0.139388
        0.265567 -1.71939 -0.80605
        -0.536883 -1.09611 -0.257627
        1.34487 -1.96689 -0.895249
        0.402847 -0.69248 0.608581
        0.26709 -2.0961 -0.983274
        0.455741 -1.46415 -0.515528
        -0.189931 -1.66565 0.188196
        0.951435 -0.451261 0.394035
        0.0205081 -0.969783 1.11607
        1.05339 -1.33623 0.102164
        -0.477684 -2.34235 -1.72571
        0.294883 -0.854436 0.156937
        0.314475 -1.31448 -0.63793
        0.460943 -0.844352 0.106695
        -0.267589 -0.736631 0.96386
        -1.54698 -0.700043 0.438602
        -0.119445 -1.43263 -0.468072
        -0.532464 -1.71451 0.0142163
        0.154006 -2.2451 -0.597041
        0.312344 -1.85576 0.859687
        0.381114 0.284115 -0.340305
        -0.176244 -2.04887 0.389123
        0.629635 -3.11007 -0.833898
        -0.231863 -0.936362 0.17209
        -0.173867 -0.664213 -0.475068
        1.49972 -0.571957 -0.172464
        -0.159909 -1.71153 0.0310583
        0.472113 -1.82393 -0.434752
        -0.623657 -1.15212 -0.589367
        0.65997 -2.37995 0.442394
        -0.582866 0.000114111 -1.35892
        0.166702 -1.7941 -0.932641
        -0.127978 -0.354524 -0.402648
        0.424916 -1.34195 0.367833
        -0.813151 -0.806358 0.127927
        1.07703 -0.919202 0.204343
        0.35758 -0.788425 -0.207956
        1.63612 -0.959883 -0.51536
        -1.94754 -1.52445 0.695711
        0.253855 -2.11993 -0.704081
        -0.81095 -0.365788 -0.71871
        -0.613293 -2.3495 -0.108338
        0.451627 -1.72406 -0.515758
        0.67414 -0.577187 0.244288
        0.285825 -1.71394 0.967143
        -0.69921 -2.43461 0.36275
        -2.22082 -0.302083 -1.31688
        -0.518615 -1.85031 0.17319
        -0.604642 -0.87405 -0.00471757
        0.130675 -0.594362 0.0361573
        0.11349 -0.714267 -0.653371
        -0.13121 -0.485321 0.647486
        0.191844 -1.62342 -0.400775
        1.025 -1.09746 0.518483
        -0.63086 -1.84812 -0.352024
        1.1635 -2.67219 -0.857754
        0.10221 -2.66861 0.820946
        -0.14599 -2.44537 -1.21407
        -1.0234 0.690784 0.919947
        -1.72919 -0.393653 0.223876
        0.0587476 -0.274098 0.500191
        -0.562048 -0.372334 0.372112
        -0.458668 -0.359816 0.204389
        -1.29714 -2.34945 0.316947
        0.400104 0.207344 -0.101928
        -0.849423 -1.0547 1.19549
        1.07674 -1.18969 0.239508
        -1.04697 -1.95423 -0.388313
        -0.886286 0.809915 0.240385
        -1.04936 -1.96306 -0.594939
        -0.809219 -1.436 -0.813949
        -0.917252 -1.21341 0.116009
        -0.442808 -1.08125 0.607326
        -0.535755 -0.653284 0.191475
        0.193168 -0.631711 -0.0415273
        1.87531 0.274436 -0.574851
        -0.212986 0.761176 0.541015
        -0.0865448 0.186699 1.26726
        -0.20523 0.110661 -2.35901
        -0.541785 -1.4238 1.04879
        -0.761873 -0.0583225 1.13623
        0.743457 0.321089 -0.30108
        0.859472 -1.24282 0.154731
        -0.696877 0.535947 0.11744
        0.650776 0.691303 -0.376748
        0.557649 0.673433 -0.447347
        0.932447 1.21285 -0.360358
        -0.0828717 -0.26291 0.148367
        0.61117 1.09441 0.589706
        0.95333 0.379598 0.277149
        1.35684 0.497488 0.393656
        -0.327232 -0.211294 0.177024
        0.671788 0.0143499 0.302425
        -0.253325 0.936467 -0.15621
        -1.1774 0.640647 -1.17673
        0.616057 0.612155 0.106768
        0.523476 -0.0146354 0.0980402
        0.962211 0.995026 0.134557
        0.220512 1.11104 0.886359
        -1.3956 2.05862 -0.386434
        -0.0196346 0.635448 0.899006
        -0.19591 -0.0402404 0.0321435
        -0.75653 1.18109 -0.338923
        0.578044 1.87112 0.393262
        -0.620031 0.137588 0.0188883
        -0.697675 0.665409 0.142908
        1.31781 0.318303 0.101603
        -0.322013 -0.131433 0.866128
        -0.0208579 -0.15379 0.424581
        0.0189955 1.23633 0.218027
        -0.0605506 1.45236 1.04034
        -0.53322 1.59029 0.879128
        0.905707 1.05693 0.204777
        -0.371578 1.01793 -0.0488107
        -0.824511 1.10956 1.21171
        -1.30947 1.7454 0.488149
        -0.0104283 0.86089 1.62163
        -0.729136 0.0356171 0.823613
        -0.41093 1.57173 1.46139
        1.16414 1.20319 0.199691
        -2.42163 1.6285 -0.14819
        -0.625189 1.75007 0.723622
        0.208033 1.24169 -1.46973
        -0.554443 1.46255 0.356378
        0.383963 1.06655 -0.311789
        0.362279 0.653647 0.476045
        1.23128 0.0948999 0.680299
        0.0940386 0.269966 -0.0658015
        -0.509785 1.59757 -0.0649332
        0.00164112 1.26127 -0.159853
        -0.67007 0.769447 0.474936
        -0.382488 0.0596139 -0.742595
        -0.828211 1.77801 0.73541
        0.025495 1.98178 -0.199816
        1.08434 0.962382 0.185261
        0.224505 1.28045 -0.423586
        0.4019 2.36189 -0.0124915
        0.377329 0.487721 0.219963
        0.656191 1.7711 -1.246
        -0.542887 1.2552 0.465774
        0.28872 1.95411 -0.0119648
        -0.311361 2.80989 -0.386428
        0.143483 1.67921 -0.117425
        -0.120122 2.68609 0.424282
        -1.54734 -0.0405156 1.11676
        0.712979 0.68129 -0.499905
        0.288409 2.12927 0.279414
        1.31356 1.48867 -0.4052
        -0.370608 0.240172 -0.589565
        1.47448 0.658214 -0.79404
        -0.995465 2.23595 -0.53212
        -0.348305 2.34151 -0.390247
        -0.171113 -0.0718541 -0.387601
        0.01522 0.458569 0.08916
        0.502324 1.67254 -0.0708222
        -0.0533041 0.579161 -1.23058
        0.10707 2.22558 0.419771
        0.557491 0.478581 0.0688802
        -0.104322 2.44208 -0.193742
        0.10938 1.13833 0.0410889
        -0.735027 1.81679 -0.860637
        0.814669 1.39771 -0.0958754
        0.0917455 1.91059 -0.568683
        -0.633024 1.8549 -0.076057
        -0.611421 1.36505 0.339337
        0.130565 0.164663 1.39147
        0.387184 1.27805 -0.50076
        -0.38532 -1.15599 2.13312
        -0.0256208 1.73076 -0.0224586
        -1.03325 0.0402671 -0.236861
        0.188594 0.847124 0.116899
        -1.15004 2.15613 -0.435476
        -0.575092 2.15293 -1.36059
        0.467538 0.644111 0.372578
        0.0931215 1.23985 1.63055
        0.29478 1.96976 1.26546
        0.946633 1.4041 -0.204765
        0.304108 1.8037 0.685748
        -1.34504 1.73805 -0.462541
        -0.0344447 -0.3277 0.0323618
        -0.565736 0.810417 -1.01931
        0.579451 1.36679 -1.73698
        0.214069 1.76294 -0.357666
        -0.719948 1.26457 -1.89739
        0.475895 2.06459 -0.348224
        -0.116338 1.65129 0.472516
        -0.589475 1.26653 -1.34253
        0.518719 1.39889 -0.196299
        -0.74326 2.79539 0.89798
        -0.452813 1.08446 -0.733625
        -0.811523 2.53259 0.567381
        0.208514 0.851198 0.38987
        0.260641 1.74395 -0.31781
        -0.956787 1.37565 -0.520688
        -0.413546 0.760244 -1.72716
        -1.29023 1.00403 -0.545138
        0.0217728 1.5452 0.789185
        1.26039 0.0560627 0.595888
        -0.17562 2.14445 0.947225
        0.424334 0.491791 -0.38767
        -2.16394 0.459006 0.205133
        -0.243958 0.972592 -0.620227
        0.223184 0.995995 0.0288876
        -1.46751 1.0725 -0.232745
        0.0911633 0.836459 0.590541
        0.159539 0.545049 0.195148
        -0.591552 0.40821 0.489347
        -0.840287 1.46113 -0.427507
        0.303932 1.10606 0.836276
        -1.0008 1.01127 -0.0881403
        0.981525 2.53405 0.939418
        -0.124191 0.78369 0.0431788
        -0.0363274 1.07559 -0.316808
        0.395913 1.89278 0.43971
        -0.822649 2.10828 -0.399653
        0.800896 -0.698694 0.31512
        0.851755 1.49404 -1.53743
        1.34562 0.174725 -1.00377
        -0.325305 2.35959 -0.455225
        0.290683 1.59488 -0.26142
        -0.559803 1.53993 -0.239294
        -0.107872 2.18985 -1.60647
        -1.42129 -0.0993417 0.578082
        1.82048 1.20346 -0.258588
        0.726351 0.747473 0.272584
        -1.06159 1.35785 0.848932
        0.31861 2.1474 -0.316749
        -1.27598 1.74872 -1.11045
        -0.491701 2.17526 0.208751
        -0.252389 -0.0510194 -0.164723
        -0.0813826 0.728281 0.792212
        -0.0826609 1.44961 -0.879969
        -0.346847 1.96442 0.509114
        0.498134 1.62629 0.751771
        0.300809 1.16554 -0.200486
        -0.336977 1.4588 0.486739
        0.661038 0.966792 -0.417032
        1.51441 0.856014 0.552954
        0.19317 2.53103 0.755718
        -0.394168 2.12243 0.165377
        -1.54831 3.24167 -0.211153
        0.0151926 1.50528 0.426774
        0.417754 0.532806 -0.0206506
        0.62347 2.60735 -0.817795
        0.00234889 -0.241297 0.341684
        -1.08063 1.12642 -0.140098
        -0.946863 1.06044 -0.58431
        -0.974637 0.950078 -0.938623
        1.24095 0.600423 -1.21279
        -0.429812 0.391821 0.407931
        -1.06149 1.18521 0.339026
        0.625554 0.852197 -0.114744
        0.565869 3.18672 -1.36602
        -0.11172 2.1647 0.00777624
        -0.757496 0.534636 -0.409263
        -0.718613 0.435349 -0.960501
        0.00656976 1.99607 0.143854
        0.259836 2.30356 0.24763
        0.721517 -1.20908 0.877161
        -0.572192 -1.56078 0.600945
        0.839095 -2.07573 1.15988
        1.10675 -2.34816 -0.188465
        -0.191557 -1.79805 -0.836792
        0.355741 -2.14403 0.43139
        -0.684781 -1.72724 0.123687
        -0.974819 -0.379926 0.386235
        -0.441006 -2.41146 0.319371
        -1.03997 -0.741248 -1.14178
        0.922965 -0.917111 0.467917
        -0.623604 -0.453545 -0.0446103
        -0.257248 -0.920179 1.33005
        0.990196 -1.23747 0.845337
        0.144606 -0.234821 0.965435
        0.577211 -1.02497 0.0869431
        0.144266 -1.82366 -0.815913
        0.470651 -1.59972 0.7557
        0.152441 -0.630297 0.0310584
        0.00301544 -1.54529 -0.715728
        1.22306 -1.25192 0.263782
        0.938414 -2.12118 -0.865077
        0.441888 -1.10458 -0.307
        0.43125 -0.781082 0.0400065
        -0.344796 -1.72773 -0.284673
        0.0750996 -0.932688 0.271881
        0.0984909 -1.77278 -0.587296
        0.0756212 -1.44841 0.85847
        0.419968 -0.213937 0.480803
        0.642991 -1.4323 -0.554348
        0.698544 -2.65674 0.370406
        0.0672091 -0.980083 -0.198068
        -0.387535 -0.534005 -0.216449
        0.321142 -0.225593 0.470749
        0.240216 -0.75366 1.09682
        -0.934633 -2.75634 1.14045
        0.554553 -1.34477 0.249923
        -0.622704 -1.07864 -0.609573
        -1.07832 -1.04069 -0.945956
        1.39922 -2.30154 0.324705
        -0.407783 -1.47343 0.469062
        -0.0953528 -1.51305 -1.14315
        1.03497 -2.46728 0.321598
        -0.971589 -0.120678 -0.912569
        1.55875 -1.75856 0.680309
        1.72862 -1.24428 1.08264
        -0.995669 -2.56997 0.287883
        -0.410015 -0.637125 -0.439789
        -0.804238 -1.50246 -0.000451698
        -0.209273 -0.913668 -0.139522
        0.019675 -0.631389 -0.276802
        -0.790399 -2.6395 1.527
        -0.743577 -1.6137 -0.592285
        1.17194 -1.0678 -1.78121
        -0.581003 -0.144562 -0.689554
        1.10499 -1.17414 1.41498
        0.920387 -0.884659 -0.653244
        1.33168 -0.809508 1.06015
        -0.276359 -1.08856 1.08352
        0.539763 -1.10185 -0.38831
        -0.525051 -0.916958 -0.567925
        -0.356097 -2.05804 -0.488427
        -0.483907 -1.64615 -0.297626
        -1.33104 -2.41763 -0.324063
        0.563391 -2.30773 0.477235
        -0.208785 -0.976882 0.319854
        -1.2098 -1.92028 -0.595177
        0.0580958 -1.95505 -0.325561
        -0.244816 -0.935479 0.531937
        0.27638 -1.68669 -0.265587
        -0.838415 -0.0742566 0.431745
        -0.876218 -1.77934 -0.31578
        -0.203149 -1.21219 0.580106
        0.493793 -1.00937 0.514216
        1.02103 -1.31337 0.424894
        0.361664 -0.942877 0.293679
        1.00163 -1.29184 0.138726
        -0.976941 -0.957683 0.194776
        -1.36464 -0.968912 0.61869
        0.520682 -1.63667 -0.678023
        0.077728 -0.559819 0.695883
        1.39913 -1.70688 0.309609
        0.307936 -2.30974 0.896501
        -0.00253946 -2.3192 0.746311
        -0.379566 -2.14297 -0.713922
        0.441237 -1.47758 -0.700655
        0.221654 -0.353711 0.544817
        1.21306 -1.77464 0.567845
        0.17878 -0.928116 0.850904
        -0.649347 -2.03152 1.03805
        -0.288475 -1.73994 -0.79644
        0.0719463 -1.71546 0.964101
        -0.711645 -1.23033 -0.0941304
        0.212158 -1.37957 -0.950569