<?xml version="1.0" encoding="UTF-8" standalone="no" ?>
<VTKFile byte_order="LittleEndian" type="UnstructuredGrid" version="0.1">
  <UnstructuredGrid>
    <Piece NumberOfCells="0" NumberOfPoints="1764">
      <PointData>
        <DataArray Name="velocities" NumberOfComponents="3" format="ascii" type="Float32">
        0.459228 -2.03114 -0.555882
        -1.59706 -0.334658 -0.584282
        -0.376396 -1.96761 1.07451
        0.216723 -1.35499 -0.178143
        -0.355423 -2.00303 1.07134
        -0.797409 -1.74355 -0.0983111
        -0.852648 -2.19341 -0.160725
        -0.428779 -1.49027 -0.38443
        1.24585 -2.29118 1.03344
        -1.72542 -1.08733 -0.16536
        -0.315652 0.36774 0.0571699
        0.130616 -1.34089 0.260716
        -1.15809 -0.949633 0.123584
        0.298632 -0.556601 0.694871
        0.700289 -2.28637 -0.191106
        0.108434 -1.21398 1.05005
        0.822388 -0.572085 0.250669
        0.67657 -2.25301 -0.104901
        0.799121 -1.50475 0.874738
        -0.238818 -0.952078 0.217522
        0.652597 -0.111736 0.293437
        -0.156034 -1.53166 -0.136084
        0.660316 -0.11575 -0.15878
        -1.04197 -0.789951 0.392527
        1.35875 -0.166684 -0.0780672
        1.11805 0.24962 -0.466724
        0.4076 -1.70708 -0.742011
        -0.10444 -0.662735 0.414198
        0.52549 -0.638637 0.289965
        -1.03941 -1.45523 0.827757
        1.55153 -0.564503 0.317578
        0.182425 -0.725502 -0.791273
        0.493619 -0.448537 -0.0898231
        0.0714996 -1.05893 -1.4053
        -0.54506 -0.624407 0.0532817
        -1.26975 -0.986156 -1.54864
        0.432357 -2.44955 1.15427
        -0.903629 -2.07066 -0.654448
        -0.0512022 0.181272 -0.83281
        -0.425762 -0.406859 -1.12785
        0.898164 -1.30939 -0.123276
        0.77586 -0.928073 1.21538
        -0.0978683 -1.21369 -0.658789
        0.94715 -2.94721 -0.242476
        -0.11388 -1.90082 1.04411
        0.897928 -2.10686 0.39822
        -0.842514 -1.68718 -0.167376
        1.02539 -1.58743 -0.156011
        0.200931 -2.25126 -0.359138
        0.303493 -0.832604 -0.95892
        0.27393 -0.99154 -0.237776
        -0.160467 -1.43933 -0.586217
        -0.506618 -2.06284 -0.668657
        -1.00421 -0.97573 0.306362
        0.860835 0.248115 -0.597593
        -0.0511104 -1.69914 -0.347142
        0.0450474 -1.51392 0.350961
        -0.145416 -2.33805 0.00946091
        1.0505 -0.688411 0.434988
        0.018243 -0.305021 -0.247107
        0.362389 -0.607182 -0.545469
        0.78302 -0.967729 0.655352
        -0.367603 -1.96293 -0.43104
        0.855991 -2.24455 0.394752
        -0.258468 -1.32797 0.102838
        -0.468845 -2.28785 0.490959
        0.525994 -1.53528 1.0172
        0.615643 -1.91247 -0.606669
        0.710643 -1.48008 0.68855
        0.160767 -0.367846 0.640563
        -0.343613 -1.19938 0.62656
        0.92361 -0.172254 0.177132
        0.121909 -0.83402 2.42074
        -0.834293 -0.391783 -0.163653
        0.984097 -0.260596 0.46421
        -0.00688154 0.196831 -0.127667
        0.967145 -0.646976 0.585359
        0.986452 -0.90453 -0.128683
        -0.230423 -1.3786 -0.883122
        0.0650532 -1.81913 -0.0740293
        0.898723 -1.75156 0.479782
        0.712336 -0.209398 -0.987667
        -0.324713 -1.80385 -1.17721
        -0.338984 -0.823896 -1.225
        0.71189 -1.65779 -0.119062
        0.531512 -1.07995 -0.268719
        1.59521 -0.940458 0.300274
        -0.337637 -1.24565 0.964192
        -0.464227 -1.15617 1.08334
        -0.472068 -1.44526 0.316989
        0.373974 -2.41323 0.993153
        0.0255902 -0.947755 -0.0716195
        0.683849 -0.519142 -0.0402483
        -0.298414 -0.469574 0.12369
        -1.17821 -1.85507 1.12615
        -0.287439 -0.197883 -0.342216
        -0.0428084 -2.50981 -0.0456276
        -0.283105 -1.68627 0.38208
        0.487724 -1.934 0.265538
        0.549253 -2.21575 0.41758
        1.60664 -0.257348 -0.00370063
        -0.0112084 -0.938048 0.704879
        -0.0365342 -2.40039 -0.054633
        -0.558555 -0.707415 -0.173677
        0.0975027 -2.63484 0.0124366
        -0.0134324 -1.23337 0.59881
        0.644506 -1.5142 0.434851
        0.722207 0.257263 -0.653875
        -1.00146 -1.21941 -0.133181
        0.32122 -1.57393 0.72473
        -0.141104 -0.677188 -0.781251
        0.781648 -1.57577 -0.593361
        -1.08694 -1.44845 -0.77046
        -0.171508 -2.61714 1.55463
        -1.6974 -1.38608 0.0140049
        -0.355399 -1.58963 0.299731
        -0.290138 -0.792657 0.0466283
        1.1608 0.105357 1.73481
        -0.00671867 -1.43423 -0.711929
        0.0747154 -1.83582 0.517474
        0.351611 -1.25424 -2.17995
        0.51939 -0.560541 -0.925618
        0.269728 0.48503 -0.0692458
        -0.808407 -1.28874 1.15628
        1.70621 -1.69545 -0.0897012
        -0.488014 -1.63689 -0.464741
        0.460751 -1.48593 0.879171
        0.340201 -1.92966 -0.103479
        -0.923746 -1.48535 1.05817
        0.454263 -1.95163 0.272442
        -1.01793 -1.59949 0.372627
        0.964476 -2.04602 -1.23415
        -0.458779 -0.747108 0.538686
        -0.384573 -1.27126 0.283128
        -0.0246446 -1.97904 -0.17908
        1.5854 -1.84083 0.0572126
        0.297721 -0.525253 -0.511222
        0.626957 -0.988578 0.173724
        2.27005 -1.27032 1.17013
        0.949305 -1.53774 -0.564073
        1.45041 -1.57971 -2.3786
        -0.0614108 -1.60791 -0.974853
        0.113452 -1.75218 -0.224437
        0.797432 -0.551121 -1.00728
        0.38423 -1.49245 -0.63903
        0.387471 -2.52486 0.74352
        0.701944 -0.533282 -0.234431
        0.108365 -2.39828 -1.40622
        -0.442629 -0.961126 0.829439
        -0.0891395 0.229759 0.920649
        -0.597398 0.0894406 -1.04529
        -1.17883 0.439381 0.590233
        -0.778612 -0.820107 -0.611961
        -0.460322 -0.0162911 0.10198
        -1.25659 -0.739842 -0.402597
        1.24513 -1.27781 -0.0262084
        0.771979 -1.1579 0.364855
        1.04256 -1.01328 -0.331381
        -0.325862 -0.812935 -0.274479
        0.626258 -0.429509 1.24079
        -0.0947736 -1.66195 0.95718
        0.132074 -1.09275 -1.9381
        0.529032 -0.438812 -0.330456
        -0.790226 -0.549956 -0.27905
        -0.654431 -1.35281 0.0506322
        -0.626796 0.512898 -0.157859
        -1.822 0.0249318 -0.98699
        -1.26516 -1.1215 1.03833
        -1.10683 0.312889 0.277437
        -0.0374721 -1.19407 0.102027
        -0.381865 -0.162903 0.0120816
        -0.11064 -1.60324 -0.337017
        -0.784284 -0.270514 0.412456
        -0.33139 -1.40787 0.722165
        -0.505945 0.246892 -1.32897
        0.538687 -1.44298 -0.623467
        -1.57417 -1.1851 0.809044
        -1.12717 -1.18655 0.708621
        -1.60961 -3.2455 -0.343919
        -0.206183 -0.919726 1.6548
        -0.581932 -2.68214 -0.159115
        0.902402 0.0580311 0.0293103
        -0.33761 -0.42747 0.17819
        -0.112522 -2.45985 0.871265
        -0.430454 0.238756 -0.91184
        0.784757 -0.321771 -0.100401
        -0.143057 0.516555 1.644
        -0.22799 0.966721 -0.271548
        -0.503691 0.763698 0.491257
        0.475639 -0.612541 0.60018
        0.348002 0.732514 -1.05946
        -0.82473 -0.368939 -0.180977
        1.35274 -0.691215 -0.273793
        -0.136642 -0.818932 0.333056
        -1.55637 -0.464467 0.1173
        0.506923 2.01958 -0.525931
        0.513503 -0.0801462 0.10604
        -0.970561 1.65308 0.528979
        0.869106 1.32292 1.06716
        -0.422763 0.0615927 -0.405861
        -0.666857 1.23412 -0.502797
        -0.543601 0.952536 -0.125389
        0.10796 1.28733 0.025716
        1.1185 0.322659 0.3054
        0.363309 0.148562 -0.305501
        1.38052 1.52178 0.752196
        0.815531 0.910533 2.44819
        1.50532 1.5075 -0.650673
        -0.61026 0.596571 0.250502
        0.786176 1.567 1.43932
        -0.313877 1.3126 -0.56982
        -1.06248 1.95458 0.683707
        0.343137 1.54026 0.53801
        0.750433 2.54151 -0.290546
        -1.08226 1.01245 -0.806241
        -0.383527 1.84069 0.921324
        0.324109 1.75009 0.257019
        -1.09029 1.2646 -0.321321
        -0.964892 1.35704 1.36224
        0.233895 1.02097 0.602151
        -0.635445 2.82419 -0.253176
        -0.0465956 3.01155 -0.240991
        0.910616 2.79493 1.3776
        -0.254889 2.11272 -0.157349
        -0.73675 1.66641 1.11858
        0.203493 1.59377 -2.15158
        -0.150513 1.048 1.14022
        -0.157903 2.1829 0.467863
        -0.685137 0.0360769 -0.743295
        0.166526 1.41887 -0.462944
        -1.63019 0.9055 0.439324
        0.911496 1.13857 0.447235
        0.670797 2.10452 -0.0493424
        0.217373 2.37175 0.971476
        1.36026 1.07631 -1.88211
        0.307324 0.449664 0.322345
        0.224503 2.19116 -0.0961173
        -0.596517 1.99707 0.174626
        0.967217 0.614338 -0.114511
        -0.616901 1.27894 0.208991
        1.05518 -0.440412 0.0451195
        -0.350008 0.378801 1.28971
        0.0342775 0.96957 0.0617947
        -1.32653 1.68798 1.6756
        -0.206823 1.24316 0.555266
        -0.59784 1.39445 -0.340382
        0.348599 1.67143 -0.635571
        -0.439133 1.04581 0.809185
        0.208655 1.07713 -0.353644
        -0.449748 0.946849 0.131418
        -0.523339 2.31758 0.879702
        -1.33311 2.81026 -0.0583793
        -0.160746 0.88014 0.978646
        0.296538 1.1275 -1.20185
        0.307996 1.57773 -0.358373
        0.106974 2.20315 -0.148727
        -0.996151 2.00882 0.321567
        -1.36339 0.400292 1.39381
        0.335848 1.71401 0.351343
        0.559355 1.23103 -0.215274
        0.864608 1.80211 0.420489
        -0.462565 2.28431 0.287536
        0.769736 1.87626 -0.950492
        0.305058 1.42427 0.850276
        -0.351166 -0.420782 0.769384
        0.436251 0.863176 0.739612
        0.954613 1.86318 0.564784
        -0.80142 1.93038 -1.17412
        -0.489393 0.939109 -1.41744
        0.0911057 1.55877 -1.09937
        -0.861576 1.00067 0.601114
        -0.0499219 1.81301 -0.902557
        -0.24855 1.02135 0.055488
        -0.0488077 0.326174 -0.441201
        -0.028107 2.42766 -0.641118
        0.651089 0.700889 0.193854
        0.0986686 1.20383 -0.954156
        -1.3272 0.818551 -0.553995
        0.390731 1.12902 -0.351252
        0.841377 0.567606 0.794934
        -0.133289 1.68703 -0.578764
        -0.859966 1.93486 -0.556359
        -0.62904 1.52244 0.658839
        -0.166576 2.03867 0.778889
        0.968105 1.66161 -0.517986
        -0.0251788 0.663566 -0.404391
        -0.628609 2.15508 0.760258
        -0.558414 -0.162598 -0.475785
        -0.203415 0.865872 -1.87968
        -0.511738 0.667921 -0.497066
        0.297115 1.45101 -0.21333
        -0.246364 2.21664 0.0861522
        -1.13755 1.54982 1.14061
        -0.0479245 1.10422 0.902209
        -1.2242 -0.295489 -0.286328
        -0.106567 -0.411456 -0.405106
        -1.43255 1.5177 1.21442
        -0.265412 0.289426 -0.615678
        -0.203898 1.46945 0.971749
        1.46541 1.07008 -0.570403
        -0.0833361 1.31968 -0.311321
        -0.266245 1.80853 0.359489
        -0.803609 0.353417 -0.155387
        -0.918169 0.480732 -1.19109
        -1.14418 1.86767 -1.02766
        -0.639094 2.24331 0.710433
        -0.266342 0.676806 0.178526
        -0.987983 0.940734 0.290384
        -0.0833531 2.35584 -0.660063
        -0.927876 1.5499 0.220583
        -0.716508 1.50675 -0.770795
        -0.102958 1.96937 1.3063
        0.145464 1.63516 0.0647078
        -0.481066 1.48985 0.245398
        -0.755427 1.48115 -0.106072
        0.751025 0.910646 0.686998
        0.512547 1.21855 -0.941625
        -0.429284 1.33811 0.870856
        0.263035 0.709006 0.378569
        -0.468182 2.46246 -0.907582
        -0.162797 1.21463 -0.126792
        0.729068 1.56367 -0.696292
        -0.755348 0.96231 0.346803
        0.495343 1.37402 -0.600942
        -0.101228 1.74663 0.595382
        0.0214539 0.508679 -0.392865
        0.540756 0.240377 1.15059
        0.674399 1.74632 -0.739168
        -0.134759 2.51194 -0.776679
        0.0348034 1.1249 -0.160818
        -0.990371 1.85388 0.422542
        0.515763 1.56301 -0.258656
        -0.593581 0.445266 -1.15202
        0.986753 -0.512687 0.754006
        0.30163 1.43678 -1.22004
        -0.784469 2.60974 -0.0556931
        0.578866 0.275521 -0.76888
        -0.280978 0.880191 -0.000930666
        0.450006 1.56351 -0.0483856
        1.06346 0.996324 0.469233
        1.80777 0.644922 -0.47031
        -0.0494254 0.878155 0.733836
        0.191905 0.353898 -0.651185
        -0.430481 1.05879 0.68388
        -0.00944216 0.307612 -0.635409
        0.89724 1.80634 -0.149712
        1.26132 0.445838 -0.13812
        0.351191 0.665032 -0.202382
        -0.528693 0.873756 -0.574794
        0.155558 0.789735 0.139723
        0.0234497 2.13118 0.242468
        -0.0848395 1.94724 0.555347
        -0.590353 0.853598 -0.529108
        -1.78176 0.664828 -0.748896
        -0.270961 1.56431 -0.285905
        0.00821148 2.32496 -0.185703
        0.232881 2.65683 1.55045
        -0.765427 0.675795 0.500433
        -0.270147 0.748168 -0.0865186
        1.18204 2.15011 0.751274
        0.398105 -0.145757 0.822609
        0.98795 0.973931 0.42894
        -0.47077 0.318816 -1.53383
        0.249371 1.09152 -0.913993
        -0.736322 2.05586 -0.116292
        0.00513542 2.05315 -1.93075
        -0.379508 1.6638 -1.46497
        0.16882 0.853493 0.370048
        0.755276 1.6161 0.0477433
        -0.376806 1.15796 -1.15769
        -0.174768 -1.01667 -0.404944
        -0.511693 -1.19939 0.874482
        -0.0572836 -2.11028 0.102028
        -0.78295 -3.02058 1.1595
        1.06554 -1.85134 -0.00439226
        -0.0248565 -0.832324 -1.03891
        0.296659 -1.12608 -0.686304
        -0.60367 -0.729189 0.959353
        0.181276 -1.67631 -0.756759
        0.329899 -0.930475 0.781654
        0.390202 -2.14753 0.485417
        -0.464324 -1.99511 -0.305703
        2.40001 -2.12544 0.485367
        0.538625 -2.58171 -1.07337
        0.388946 -2.16015 -1.4356
        0.052513 -0.792566 -0.668082
        -0.0677941 -1.96217 0.18226
        0.66441 -0.646944 -0.970844
        0.674407 -0.756626 1.0378
        0.687625 -0.365435 -1.03134
        -0.288999 0.514111 -0.380356
        -1.21757 -1.97043 0.505148
        0.250179 -1.54662 -0.566251
        -0.308289 -0.792533 -1.22472
        0.425688 -1.73921 1.0964
        -0.676363 -1.73849 1.51841
        -0.34398 -1.80418 1.46852
        0.355422 -0.945097 0.737167
        -0.898333 -2.04579 0.0969795
        0.540983 -1.9296 -0.282453
        0.700757 -0.644465 -0.291646
        -1.61941 -0.287205 -0.263942
        -1.07659 -1.35846 -1.38335
        0.740676 -1.4603 -0.788581
        0.704034 -1.27625 -0.218991
        -0.144925 -0.934229 -0.0704215
        -0.351982 -0.97565 -0.870165
        -0.57952 -1.35304 -0.220805
        -0.864756 0.132222 0.513668
        0.127504 -1.16301 -0.629928
        -0.280048 -0.205628 0.295478
        -0.973041 -1.38002 0.965885
        -0.96201 -1.79946 0.432678
        1.28747 -0.70651 -0.9611
        -0.809544 -1.12368 -1.6949
        0.400191 -1.28075 -0.108691
        -1.11777 -1.85038 0.42534
        -0.788418 -2.68671 -0.641628
        0.55167 -1.65143 -0.286896
        0.0815176 -0.549869 -1.34144
        -0.862042 -3.2415 -0.240292
        -0.520992 -1.44004 -0.621805
        0.0829611 -0.563755 0.742302
        0.507023 -0.647771 -0.871518
        -0.403212 -2.44417 0.0239114
        0.367366 -1.75431 -0.309522
        -0.564676 -1.58165 -0.213284
        0.227884 -1.75892 0.947948
        -0.839253 -0.853501 0.962117
        -1.63358 -1.34729 0.843874
        -0.244677 -0.51199 0.528242
        0.733291 -0.940157 -1.15998
        -0.216634 -1.94028 -0.33269
        0.235014 -1.29354 0.414811
        0.394999 -1.28386 -0.269979
        -0.0474263 -2.29514 0.571102
        0.88299 -2.44976 0.576058
        -1.13506 -0.310343 1.51941
        1.3516 -0.714725 0.434242
        0.950552 -1.18176 0.502357
        0.273744 -0.756552 -0.205018
        0.510374 -0.57497 0.28824
        0.485768 -2.56947 0.283189
        0.362371 -0.438637 -1.30509
        -0.49243 -0.790314 -1.67294
        -0.344964 -3.31063 -0.0351642
        -1.27256 0.0488784 -1.67704
        -1.16629 -0.56169 -0.814925
        0.711053 -1.53412 0.58988
        1.09783 -1.43368 -0.603394
        -0.647718 -1.67632 -0.00378089
        -0.384998 -0.596597 -0.963348
        0.274647 -0.363557 1.34408
        0.215693 -0.440922 -0.746
        0.867574 -1.57116 -1.60165
        0.382614 -0.194762 -0.202759
        -0.444996 -1.79747 0.0649816
        0.502714 -1.36033 -0.152954
        -0.887476 -1.57563 -1.2664
        -0.247834 -1.81242 0.0278111
        0.807995 -2.3416 -0.341464
        0.586173 -2.42632 -0.431451
        1.00529 -3.06412 0.309966
        -0.471527 -1.18904 0.506826
        0.207477 -0.701052 0.724519
        -0.357443 0.485416 -0.752609
        0.669645 -1.34162 0.590262
        0.35484 0.0188535 0.145475
        -0.0891745 -1.04157 -0.796273
        -0.339898 -0.724368 -0.898819
        -0.464403 -1.25574 -0.448068
        0.506971 -2.33996 1.05914
        1.16097 -1.50438 -0.574107
        0.649287 -1.25873 -0.271704
        -0.209189 -1.21882 0.405062
        -0.00346246 -2.36498 -0.417679
        -0.497031 -0.449655 -0.175268
        0.813353 -1.69994 0.66908
        -0.138531 -0.997892 -0.340094
        1.40728 -0.427712 -1.08305
        0.753162 -1.81283 -1.69371
        -0.165193 -2.19919 0.303087
        -0.870672 -1.1609 0.494523
        0.217662 -1.13899 -0.28333
        1.55326 -0.844564 1.19537
        -0.677688 -1.16362 0.422557
        0.977536 -0.130502 0.350162
        -0.821229 -0.851978 -0.079334
        0.175029 -1.31772 -1.44323
        -0.16407 -0.368624 0.849719
        0.82423 -1.09489 -0.303521
        1.6133 -1.85295 0.697156
        -0.647709 -1.15329 0.224049
        -0.282714 -0.407497 -1.14006
        -1.09713 -1.16564 -0.227263
        -0.454925 -0.942311 -0.610002
        -0.278439 -1.94173 0.881439
        -0.923722 -2.11053 -0.540714
        -1.4737 -0.607336 -0.503174
        -0.836326 -0.994428 0.486041
        0.588223 -1.50008 0.117883
        1.62531 -2.97329 0.237611
        -0.444252 -1.5684 -0.541922
        1.23842 0.899809 1.24853
        -1.40054 -0.434584 0.452276
        0.966427 -0.0887831 -0.687145
        0.0431205 -0.992179 1.04853
        1.16379 -0.460662 1.34143
        0.535144 -1.67034 -0.450122
        -0.366561 -1.38048 -0.418654
        0.56371 -0.346724 -0.112308
        0.109306 -2.69035 0.133405
        -0.0280237 -0.688403 -0.6641
        0.368252 -1.00784 -0.543516
        -0.305084 -1.60247 -0.205257
        0.941087 -2.02997 -0.504701
        1.21304 -1.37012 0.0847255
        1.10078 -1.10201 0.5299
        -0.0673645 -1.14116 -0.688206
        -0.569527 -2.20545 0.0147375
        0.534035 -1.41115 -0.350712
        0.0145169 -1.94041 -1.20288
        0.920327 -1.90701 0.248247
        0.146197 -0.339137 0.0827515
        1.80301 -2.03329 0.35157
        -0.608141 -0.642424 -0.811401
        -0.0632071 -0.362246 -0.051057
        0.138498 -1.94068 1.01462
        -0.768248 -1.537 -0.141974
        -0.497064 -0.806648 0.145043
        -0.162846 -0.645978 0.381565
        -0.0204154 -0.563818 1.18632
        0.753502 -1.64291 -0.519027
        0.742216 -0.963668 0.915449
        0.362854 -1.63458 -0.182892
        0.633679 -1.30409 0.188834
        0.3297 -0.986852 -0.0305803
        0.48046 -1.33696 -0.469473
        -0.197287 -0.301069 -0.428846
        -0.19057 -0.572904 -0.97443
        -1.03719 -1.14108 -1.13449
        0.0562886 -1.67067 0.782346
        0.0618647 -0.106554 0.161592
        -0.669732 -0.816299 -0.803253
        -1.01324 -0.952226 0.13504
        -1.3184 -1.42486 -0.60367
        -0.0125731 -1.13447 -1.34642
        -0.043292 0.0957747 -0.630445
        -0.672883 -2.40692 -0.148559
        0.125368 -2.20427 -1.22784
        -1.07112 -0.657134 0.018673
        -0.91454 -1.26321 -0.225992
        0.365063 -1.72712 0.604325
        0.220624 -1.12186 -1.41765
        -0.219809 -2.48387 0.263017
        -0.454707 -1.26906 0.320837
        -0.605003 -1.99886 -0.476531
        -0.329087 -1.79793 0.914845
        -0.541031 -1.68665 -0.13111
        -0.463004 -1.19451 0.250929
        -1.0823 0.132666 0.464244
        0.308292 -2.33748 0.243077
        0.289161 -1.21865 -1.21607
        0.999402 -1.88701 -0.454108
        0.384706 -0.235133 0.76284
        1.87531 0.274436 -0.574851
        -0.56883 -0.824216 0.473425
        0.454916 -0.370146 1.00316
        0.200767 0.959083 0.0307431
        -1.69218 0.266974 0.658406
        2.13409 0.353106 -0.205364
        -0.0337881 1.01935 0.390809
        -0.203133 0.715823 0.852088
        0.323117 0.664644 0.774684
        0.244379 0.197153 -0.283928
        0.77611 0.429429 -0.114449
        0.851896 0.0302597 0.839704
        -0.216568 0.819172 -0.127573
        0.208031 1.32577 -1.12081
        -1.67923 0.397421 -0.720339
        -0.284724 -0.365629 -0.514294
        -0.154441 -0.753159 -0.490179
        0.27833 0.90532 0.386008
        1.08131 1.23186 0.0346995
        -0.597451 0.213276 0.390509
        -0.476954 0.0300692 -0.273057
        1.05027 0.777354 -0.90811
        1.30354 0.970274 -0.196739
        -0.0270625 0.784435 -0.279202
        -0.494863 0.298814 -0.280213
        0.0214912 1.00649 1.97582
        0.858304 2.24099 0.0546773
        0.239167 2.34832 0.986373
        0.76524 1.04696 0.717387
        -0.955632 0.93965 -0.048278
        -0.243799 0.886029 -0.629123
        0.0879995 0.877434 0.504083
        -0.660877 1.21083 0.190376
        0.615361 0.503904 1.60646
        -0.537612 1.95818 0.982445
        0.622459 0.6059 -0.119813
        -0.972568 1.07895 0.496154
        -0.403572 1.41073 0.306586
        0.0769862 1.70198 0.157828
        0.867375 1.31834 -0.124061
        1.63166 1.77208 -1.08657
        0.0542845 2.46078 0.783442
        -0.0679287 0.634531 1.26032
        -0.116676 1.23417 0.774739
        -0.585471 0.499871 -1.37533
        0.469977 2.14914 0.563686
        -0.153059 3.09006 -0.375546
        0.811152 1.83911 1.4637
        -0.309591 1.61142 1.38349
        -0.233692 1.35947 -0.0659779
        0.0372521 0.31467 0.684014
        1.27592 1.2249 -0.00832906
        0.243567 1.67904 0.816863
        -0.3067 1.4862 0.585228
        -0.901244 1.24241 -0.129772
        -1.23857 0.489374 1.56866
        -0.841644 1.74767 -0.79641
        0.730781 1.82675 0.170135
        -0.213848 0.738034 0.5839
        -0.144107 1.99885 -0.295199
        -0.737148 2.3462 0.146417
        0.169402 -0.134818 1.15572
        -0.190542 1.8594 -0.405608
        -0.0510455 -0.312653 1.90763
        -0.12764 1.89871 -1.00378
        0.00137041 1.37913 -0.0433677
        1.13088 -0.066242 0.0843934
        -1.08934 2.18246 -0.111931
        0.018761 2.15994 0.424299
        0.0255937 1.57551 0.432136
        -0.898532 2.1574 -0.977454
        -0.0307093 0.554031 -1.31629
        0.435945 0.711758 -0.814267
        -0.0292056 1.13563 0.124297
        0.668767 1.60714 -0.156142
        -0.805071 0.349062 -1.52888
        -0.290177 0.778855 0.335437
        -1.1907 2.01753 0.904696
        0.248736 0.623022 -0.318855
        -1.61933 1.29144 0.791497
        -0.395142 0.715733 -1.49531
        0.340418 0.478468 -0.278699
        -1.32601 3.21 1.09836
        0.485681 0.640501 -0.725877
        -0.626051 0.750379 0.0698192
        1.29123 1.54044 0.108232
        -0.462434 1.0836 0.788856
        -0.273541 0.528373 -0.469513
        0.505092 0.371877 0.829386
        -1.09201 -0.423075 0.734988
        1.67782 0.968383 -1.52475
        -1.57479 1.08857 0.977738
        -0.191711 1.94747 -0.276143
        -0.605117 0.473135 -0.363573
        0.771768 0.862607 0.432213
        0.130234 1.4877 0.669447
        -1.22109 0.854947 0.433427
        1.72232 1.78059 0.522396
        -0.297782 -0.365573 -1.20028
        -0.358433 0.808783 0.615248
        -0.291191 1.64412 -0.804903
        0.375583 2.81917 1.21619
        1.01958 1.57437 1.04653
        -0.838683 1.33109 -1.40271
        -0.0185182 1.67938 1.16368
        -0.307504 1.60896 0.250346
        0.233333 0.891515 0.107205
        0.167523 1.18662 -0.734465
        0.769064 0.833968 0.592984
        0.337285 1.14882 0.817721
        0.249414 0.401038 0.382353
        0.932232 1.57269 -0.642632
        0.726441 2.13879 0.303781
        -1.02623 1.41403 0.421754
        -0.486066 1.56075 0.702721
        0.0300871 1.1134 1.07749
        -1.28424 -0.354342 -0.150698
        -0.693965 2.43661 0.468357
        0.0500478 2.14198 0.464143
        -0.0269739 1.17089 0.559695
        0.188604 1.48819 1.17968
        -0.398361 0.594134 0.664463
        1.09806 0.913084 -0.920663
        -1.37006 1.94602 -0.224361
        -0.791192 1.11751 0.860869
        0.187121 2.03851 -0.561829
        -0.85785 1.65193 0.803262
        -0.518819 1.20123 0.622325
        0.260444 2.0442 0.466073
        -0.457943 2.49021 0.307173
        0.602214 0.442719 0.876861
        -0.0938886 1.65412 -0.675981
        -0.416031 0.436977 0.858703
        -1.61454 2.88116 1.27136
        -0.45513 1.79783 -0.282291
        -0.239237 1.19077 -0.160567
        1.33444 0.509323 0.059492
        0.954971 0.994066 -0.396817
        0.790409 0.633875 2.31884
        0.173216 0.544932 -0.678627
        0.470234 1.62889 -0.228997
        -0.728489 1.42605 -0.608313
        1.47803 0.00420908 -0.868659
        -0.74343 2.17624 -0.251937
        -0.907164 2.17906 -0.929007
        0.892293 0.520498 -0.544519
        0.403231 1.40139 -1.59516
        -1.34507 0.896664 -0.968976
        -0.285826 1.46916 0.0958674
        -0.333849 0.500921 -0.161277
        0.709211 1.41273 -0.354307
        -0.948958 1.29901 -0.904388
        0.808096 0.784171 -0.35452
        0.551834 2.2882 1.57458
        0.0936472 0.238673 1.5085
        -0.0899788 2.31913 -0.462266
        -0.277589 2.33719 -0.916554
        -0.350515 2.001 -1.13991
        0.111981 3.10435 0.292854
        -0.685054 1.61799 -0.603732
        1.43934 0.216907 -0.865508
        0.791722 2.15146 -0.802865
        0.0631365 0.4763 0.901083
        0.588021 1.41189 0.547856
        -1.64987 0.728769 0.0938114
        -0.042783 0.246509 1.02124
        -0.441392 1.40582 -0.669338
        -1.47511 0.126358 -0.829384
        0.0191854 0.419196 0.423929
        0.694963 0.663709 -0.339
        -0.532267 1.07114 -0.178202
        0.0911367 1.00354 0.151448
        0.618015 1.42334 0.20067
        0.902178 1.03239 0.632163
        -0.292794 0.265378 0.586579
        1.25977 1.44959 0.990156
        -0.869515 1.13527 -1.95355
        -0.140859 1.60068 0.766307
        0.276128 2.56373 0.569042
        -0.308049 2.23299 -0.686634
        0.547396 1.8512 0.562888
        -0.693962 1.09184 -0.0060123
        0.00147809 1.3584 0.649635
        0.413553 1.09934 0.588142
        -0.234572 1.57662 0.152875
        0.0696583 -0.500101 0.4656
        -0.47675 -2.55051 -0.526574
        0.918122 -0.943849 1.50475
        -0.184984 -2.34822 0.328341
        -0.796336 -0.509843 1.40753
        0.714207 -1.75001 0.546419
        0.765738 -1.82415 0.378955
        0.251793 -1.65514 1.11276
        -0.576695 0.324767 0.730798
        0.264717 -0.954522 -0.0179871
        -0.588614 -1.28795 0.337748
        -0.50602 -1.47152 0.290123
        -0.340669 -1.33903 -1.14899
        -1.5661 -0.976163 1.73881
        0.884313 1.03345 -0.0841799
        -0.0851713 -1.49906 -0.865996
        0.296049 -1.6387 -0.383754
        0.281968 -1.20387 0.53976
        0.635556 -1.56475 0.878352
        0.421347 -1.55896 -0.598192
        -0.18967 -2.65793 0.460834
        0.758579 -1.11801 0.0558853
        0.381539 -1.57445 0.193599
        0.865271 -1.99436 -0.174538
        0.0140831 -0.850684 -0.036542
        0.0215076 -1.07216 0.914477
        1.15248 -1.93709 -0.0153817
        1.01699 -1.76652 0.854234
        -0.258327 -2.44515 0.800959
        -0.774841 -2.08632 0.188475
        -0.561373 -0.0192009 0.162783
        -0.135779 -1.1071 -0.441215
        0.570802 -1.87361 0.0730583
        0.649262 -0.679946 1.58402
        -0.287766 -2.01646 0.842924
        0.454291 -1.51807 0.28235
        -0.56999 -1.30452 -0.0526755
        -1.09647 -1.11121 -0.449207
        1.5783 -0.882241 -0.672687
        -0.840881 -1.86859 -0.0966167
        -0.342798 -0.645812 0.258953
        -0.458561 -1.78038 0.190443
        -0.411682 -2.57009 -0.240039
        -0.349656 -2.89266 1.19386
        0.547446 -1.54607 0.437321
        0.778413 -2.52973 -0.0595186
        -0.0180259 -0.964911 0.867175
        -1.21717 -1.51194 -0.39318
        -0.153476 -0.403234 -0.20706
        -0.191934 -0.845637 -1.15295
        -0.90313 -1.33708 -0.211676
        0.266748 -1.99536 0.635429
        -0.482733 -2.57285 -1.14183
        1.1175 -1.45843 -1.18498
        -2.01443 -1.53904 0.49984
        0.609005 -1.56968 1.56447
        0.624562 -1.35841 -0.339763
        0.104124 -1.88612 0.325552
        0.0462753 -1.39803 0.357966
        1.0395 -0.714087 0.448903
        -1.44937 -1.79152 -0.45063
        0.954142 -1.99256 -1.12269
        0.0961512 0.133943 -1.3593
        0.101184 -1.87552 -0.637794
        1.06105 -0.724149 -0.460477
        0.942913 -0.376881 -0.162563
        0.21709 -0.353082 -0.224472
        0.319911 -1.57573 0.273835
        -0.97378 -0.690105 0.147684
        -0.614603 -1.59521 -0.765653
        -0.005714 -2.32502 0.15829
        0.455568 -2.03828 -0.327324
        -0.265111 -0.776437 1.37748
        0.175625 -1.63182 0.707005
        0.509374 -1.60448 0.204315
        -1.29723 -2.20967 -0.830795
        -0.133252 -1.68157 -0.175063
        1.09534 -1.4518 -1.49449
        1.07907 -1.60298 -1.14332
        0.80111 -2.03177 -0.357108
        -0.394866 -1.37053 -1.19935
        0.701801 -2.11811 -0.838415
        0.399415 -1.81479 0.150434
        1.1555 -0.996274 0.50605
        -1.04783 -0.517679 0.634219
        0.129753 -2.4963 0.345252