<?xml version="1.0" encoding="UTF-8" standalone="no" ?>
<VTKFile byte_order="LittleEndian" type="UnstructuredGrid" version="0.1">
  <UnstructuredGrid>
    <Piece NumberOfCells="0" NumberOfPoints="1764">
      <PointData>
        <DataArray Name="velocities" NumberOfComponents="3" format="ascii" type="Float32">
        -0.110357 -0.171546 -0.524767
        -0.374348 -1.49936 -0.0750369
        1.5432 -0.267024 0.422251
        -0.122754 -1.81685 0.362677
        -1.12042 -0.311382 0.702225
        0.306061 -1.22904 -0.961136
        0.345484 -1.365 -0.0989286
        -0.96985 -0.540947 -0.122436
        1.1354 -1.4058 -0.305168
        0.370122 -1.97511 -0.643196
        -0.0863388 -1.58137 -0.478028
        0.381284 -0.451615 1.30069
        -0.425489 -1.34615 -0.288255
        0.0278356 -1.56588 -0.931451
        -0.676786 -2.00754 -0.0343233
        -0.725923 -1.92642 1.94904
        0.0484614 -1.25699 0.165053
        -0.665402 -0.75589 -0.456404
        -0.476411 -0.718581 0.699404
        -0.7176 -2.45014 -0.274516
        -0.526359 -1.37974 0.727204
        0.447378 -0.745231 -0.106955
        -0.0612348 -2.43325 0.359194
        0.327905 -0.170282 -0.283248
        0.548999 -1.34943 -0.411854
        -0.280109 -2.53533 -0.605831
        0.336462 -2.31778 -0.874836
        -0.314467 -0.991555 -0.613724
        0.44935 -0.0414257 0.232187
        -0.972603 -1.37481 -1.08295
        1.23556 -0.614184 -1.03669
        -0.434139 -0.676265 -0.511582
        0.596809 -1.83676 -0.613033
        0.0121974 -1.56406 -0.395206
        1.03618 -1.12525 -0.150968
        -0.00830058 -0.720187 -1.52642
        0.388683 -1.55676 0.997152
        0.238725 -2.01418 -0.204169
        -0.498076 -1.44108 0.091247
        -0.512228 -0.846463 0.922432
        0.310758 -0.499303 0.422864
        -0.477268 -1.71762 -0.195
        -1.05324 -1.84953 0.635869
        -0.279264 -1.7219 -1.16549
        0.098769 -1.41777 0.821505
        0.228352 -2.07028 1.08451
        -0.151801 -0.574026 0.433506
        -0.32814 -2.077 -0.872451
        0.615138 -0.305663 0.912032
        1.03575 -1.3931 0.939222
        0.384698 -1.59052 -0.86417
        0.610229 -1.22356 -0.123223
        0.337364 -1.51865 -0.803185
        -0.177512 -0.818467 0.355598
        0.694691 -0.00102553 0.0479326
        -0.0146248 -1.46771 0.354425
        0.40213 -2.68273 -0.287348
        0.639972 -0.403434 -0.683377
        -0.301984 -1.92819 -1.04283
        -0.468536 -0.217196 -0.968443
        -0.887483 -1.38293 -0.0184735
        0.392464 -2.35798 -0.780784
        -1.42772 -0.391033 -0.922966
        -0.68669 -1.62172 -1.08255
        -0.82931 -2.62109 1.1501
        1.01008 -2.15595 0.226142
        -1.63961 -1.1576 -0.734531
        0.987936 0.405 -0.162127
        0.184717 -2.04078 0.0753111
        -0.592563 -0.323801 -0.715488
        -0.127936 -1.24434 -0.927314
        -0.259201 -2.56956 -1.10404
        -0.307887 -1.95454 -0.213091
        -0.582988 -3.0629 0.663338
        0.0931632 -1.67774 0.409058
        0.548049 -1.1743 -0.532502
        1.09522 -1.2427 -0.645875
        0.871523 -2.00079 -0.446833
        -0.110192 -1.22011 1.77729
        -0.0816379 -1.96106 -1.31756
        -0.0327055 -0.778119 -0.769295
        0.235146 -1.39974 -0.292913
        0.632977 -1.38985 0.701955
        0.880877 -2.64149 0.0554096
        -1.69588 -1.86916 -0.919744
        -0.366751 -1.37672 0.420965
        -0.734455 -0.487021 0.196829
        -0.596398 -0.837643 1.27992
        -1.40568 -2.37149 0.651743
        1.04394 -1.69187 -1.42112
        0.683386 -0.414923 -0.0972994
        -0.789777 -1.54063 -0.890169
        0.69183 -0.85152 -1.48327
        -0.201335 -0.625931 0.567821
        -0.723997 -2.1891 0.812457
        -0.0296559 -0.13592 -0.0430896
        0.0854636 -0.771189 -0.473019
        1.42097 -1.48441 0.182723
        -0.541682 -0.606352 -0.755359
        0.268106 -1.06177 -0.30245
        1.07633 0.040842 0.507508
        -0.527615 -0.524946 -0.414973
        0.642007 -1.27899 0.3338
        -0.740222 -2.42835 0.384607
        0.216798 -0.810112 -1.04539
        0.706014 -1.41997 -0.22196
        0.649683 -0.760945 -0.626371
        0.0770274 -1.34862 0.694852
        1.65497 -0.938055 -0.14178
        -0.753895 -0.862014 0.5926
        0.480699 -0.745216 0.196341
        -0.0696434 -2.52596 -1.17525
        -0.379975 -1.33343 0.10786
        -0.318817 -1.83073 -1.12294
        0.0219784 -0.837664 -0.00251649
        -0.848703 -1.55427 -0.169696
        -0.144753 -1.46231 -0.580406
        0.114303 -0.727491 -0.560505
        0.522389 -2.85694 -0.967104
        0.173573 -0.686981 -1.55124
        0.764388 -0.895684 1.08027
        0.0312994 -2.17432 -1.10558
        -1.01712 -0.146005 0.397006
        -0.323923 -0.997066 -1.59486
        0.00640495 0.301444 -0.667293
        -0.39418 -0.255356 -1.2485
        0.416914 -0.994853 0.698899
        0.23466 -1.57311 -0.71108
        0.642075 -0.183586 1.32619
        0.316383 -1.41809 0.300642
        1.81553 -2.05399 -0.490429
        0.160486 -0.970899 0.592697
        0.568881 -0.595272 0.0865368
        -0.70638 -0.185343 1.00103
        0.327374 -2.24181 0.189442
        -0.568514 -0.967773 -0.0745158
        -0.411438 -0.773936 0.490945
        0.882068 -0.603205 0.621551
        -0.256759 -1.82907 0.654445
        -1.19492 -0.742917 -0.625635
        0.529493 -2.12765 -1.56023
        -0.969691 -2.14496 -0.680584
        -1.09412 -0.965379 0.686278
        0.147415 0.124976 -0.112083
        0.274872 0.758726 0.172524
        1.05695 -0.703162 0.0271355
        -0.994957 -1.26602 -0.674599
        -1.11491 -0.0596633 -0.305018
        -0.992614 -1.72887 -0.805443
        1.71982 -0.559724 0.0332022
        0.581716 -0.0458041 0.504531
        0.0955694 -0.947071 -0.758934
        -0.74026 -1.52948 1.21256
        -0.153506 -0.538587 -0.80223
        -1.06933 -0.991569 -0.881944
        -1.05983 -1.89721 0.758308
        0.593889 -0.732147 -1.8983
        0.0825967 -1.54521 0.0260274
        0.337452 -0.971765 -1.18849
        1.01502 0.115365 0.334117
        -0.231314 -0.802833 0.446085
        -0.279523 -1.267 0.0126944
        0.811527 -0.930284 0.128102
        -0.835904 -1.00028 0.271691
        -1.20935 -0.74543 -1.30111
        -0.0917153 -1.41098 0.22348
        -0.443374 -0.37722 -0.469159
        0.0678891 -1.05826 -0.558772
        1.07108 -1.66744 -1.87745
        -1.10726 -1.22305 0.77783
        -1.58507 -1.00188 -0.370676
        0.185674 -0.552096 -0.66934
        -0.720675 -1.29962 -0.551501
        -0.693112 -1.31339 0.530187
        -0.768715 -0.44172 -0.831453
        -1.36583 -1.14931 -0.168017
        -0.918736 -1.26083 -0.100736
        0.00298672 -0.859812 -0.317263
        0.475531 -0.656635 -0.513088
        0.521653 -0.270065 0.945023
        0.784758 -0.321771 -0.100399
        1.07987 1.70607 -0.33292
        -0.483539 0.430057 -0.733844
        -0.578165 0.688728 0.109246
        0.596486 1.52653 0.568875
        -0.299052 1.19726 -1.43725
        -0.79814 -0.296256 -1.17591
        0.0851507 1.85291 -0.0708474
        0.163752 -0.0250242 0.921206
        -1.09617 1.4209 0.830662
        -0.747446 -0.0585347 0.0325464
        -0.87803 0.0476454 0.158435
        -0.973195 0.655348 0.750699
        0.972652 1.33713 -0.300533
        -0.278343 -0.969845 0.620305
        0.225041 0.25781 -0.826256
        0.546476 0.593496 0.566915
        -0.029277 0.148288 -0.212338
        -0.305314 0.0837841 -0.494449
        0.133181 0.998209 0.420888
        1.47196 1.31094 -0.525961
        -0.996872 1.07034 0.374202
        0.250028 1.0096 0.257884
        1.04453 -0.564517 1.33027
        1.12111 3.0948 -0.51833
        0.607836 1.17571 1.47723
        -0.147204 0.208615 -0.652354
        -0.612885 2.28039 -1.06157
        -0.909089 0.781224 -1.0837
        -0.46527 0.72513 -0.210085
        1.41623 0.842214 0.263761
        0.402659 1.46112 0.491331
        -0.337621 1.55409 1.03074
        -1.06524 1.07035 0.140624
        -0.036931 1.19683 0.0597407
        -0.0899227 2.07889 -0.381752
        -0.916238 1.25427 -0.617923
        -0.585291 1.38219 0.44027
        -0.622032 0.889992 -0.606276
        0.954253 2.49398 0.928704
        0.821325 1.41713 2.2453
        0.379923 2.06809 -0.757184
        -0.977523 1.00863 0.291656
        -0.425814 1.77775 0.124908
        0.796937 0.600711 1.21411
        -1.4171 1.77878 -1.61936
        0.650104 2.49872 -0.536539
        -0.257772 1.77392 0.0471803
        -1.11946 1.04386 1.19631
        -1.3819 2.08493 -0.0748178
        0.649438 -0.425147 0.443888
        -0.53858 1.47795 0.0499851
        0.182076 0.963675 0.391031
        1.40128 0.146002 0.701663
        0.328617 0.201832 0.546306
        0.218571 0.152025 -0.492584
        -0.51283 2.55346 0.261838
        0.378302 1.29344 0.0561085
        0.607013 1.53491 1.44778
        0.695238 1.06954 0.206907
        0.29942 2.41144 -0.421004
        -0.92511 0.379513 -0.591348
        -0.717852 2.07894 -0.0663788
        -1.1718 0.330033 -0.441259
        0.564358 1.9143 0.27273
        -0.366008 1.41155 -1.22698
        -0.692603 1.33503 0.398379
        0.461904 2.02984 0.390192
        0.0307851 2.13788 -0.149399
        0.389666 1.25967 0.0570487
        -0.380186 1.76466 0.656967
        1.02709 1.19927 -0.985538
        -1.07892 -0.0645784 -0.00810103
        -0.196804 2.02449 -1.11124
        -0.101618 1.46936 0.802071
        0.178567 0.800497 0.432408
        -0.722733 2.58577 -0.193266
        0.85528 0.303213 1.21204
        -0.724395 -0.311364 1.51718
        0.508561 1.99063 -0.253313
        -0.312661 1.98965 -0.793989
        -1.01522 1.48533 0.0944261
        -0.26244 2.27021 0.573973
        0.472545 2.28231 -0.995965
        -1.22854 0.513675 -0.441305
        0.391503 2.92355 -1.07939
        0.554175 1.15871 -0.588984
        0.732581 0.789513 -0.860758
        -0.403806 1.74297 -0.0604321
        1.11596 0.728298 0.24309
        0.339907 1.43198 1.27582
        1.16618 1.5157 1.22302
        -1.10187 1.10129 -1.02041
        -0.933198 2.12224 0.703208
        -0.907645 0.361693 -0.503328
        -0.0215325 1.48753 -0.85985
        -0.252991 2.58815 1.58347
        0.237691 0.991993 -0.225967
        -0.255835 1.52711 -0.897321
        0.597778 0.788796 0.102621
        -0.906087 1.5607 -0.84661
        -0.29149 1.61309 0.21296
        -0.771094 1.38655 1.40911
        -0.0252066 2.21674 0.542392
        -0.131885 1.28066 -0.763559
        -0.129168 2.55217 -0.15767
        -0.251293 1.89284 0.258863
        -0.37563 2.70416 -0.0545579
        -0.281999 1.89717 0.367997
        -0.585194 0.573217 -0.307318
        -0.670052 2.03785 0.123653
        0.671943 1.8048 1.27576
        0.769978 0.927436 0.582009
        0.61038 0.992437 0.331493
        0.404098 1.72968 -0.220974
        0.12385 1.36865 -0.0633573
        0.421168 2.49654 -0.0495181
        -0.268252 1.44258 1.60465
        -0.592908 1.35155 0.299901
        -0.335715 1.87274 0.910639
        -0.703014 1.82532 1.31282
        1.06729 2.14233 -1.34687
        -0.510248 0.346724 -0.161512
        0.782232 1.61292 0.166141
        0.0425746 1.2574 -1.21148
        0.127753 3.05518 0.426945
        -1.55498 2.4484 -1.4381
        -0.671063 2.05066 -1.6872
        1.36545 0.209306 0.532289
        0.408556 1.3987 0.0480946
        -0.110294 2.39255 0.497052
        -0.822159 1.28083 -0.307462
        -0.39907 2.29357 0.150026
        -0.0478742 0.800841 0.33073
        1.28395 1.51811 -0.425963
        -0.930816 0.519152 -1.56078
        -0.226189 1.03345 -0.911341
        0.572974 -0.134959 -0.141441
        0.466217 2.11148 -0.0557804
        0.374141 2.21916 -1.2841
        0.0997013 1.59183 -0.699806
        -0.700091 0.592027 0.776328
        -0.693962 1.14159 -0.083563
        0.41156 0.953989 -1.34315
        0.123483 2.09422 -0.631767
        0.708494 2.15117 -0.483759
        -0.690337 1.01141 -0.113628
        -0.423598 -0.314485 -0.0718748
        -0.804136 1.37967 0.00780736
        -0.287171 1.47713 0.516477
        1.3899 1.14441 -0.953243
        -1.21353 -0.0176298 0.636438
        -0.496543 1.97316 -0.241504
        -0.964382 1.88398 0.202755
        -0.180247 2.03003 -0.794806
        -0.132494 1.77081 -0.520011
        -1.10609 2.33142 -0.335778
        -0.341022 1.46442 -1.35793
        0.203905 3.3459 0.404106
        0.170045 1.99604 -0.89155
        -0.339069 1.12739 1.20367
        -1.24848 0.76936 -1.16034
        -0.828631 1.008 -0.119251
        -0.356847 0.771429 -0.319484
        -0.453017 1.11904 -0.122067
        -0.240979 1.77869 -0.456721
        -0.600629 2.49572 -1.63944
        -0.57334 2.10163 0.20729
        -1.09826 0.799564 0.440422
        0.118053 1.10188 0.167114
        0.461269 0.338043 1.33387
        0.440001 0.500056 0.145786
        0.661487 0.796691 0.673019
        1.48206 1.58546 -0.746754
        0.859577 1.84718 0.452022
        -0.652303 0.732323 -0.0132461
        -0.860662 1.78534 0.236303
        0.828167 1.37773 -0.611375
        0.675715 2.6602 -0.479763
        -0.302489 1.56785 0.469067
        0.398299 1.58595 1.02761
        0.986654 1.36501 1.34665
        -0.386299 1.09356 0.51052
        0.788049 1.56193 -0.537316
        -0.560302 1.63886 0.818288
        -0.163013 -0.140122 -1.82113
        -0.961993 0.379233 -0.920101
        0.295647 2.33577 -0.248719
        0.0778095 1.74497 0.573172
        -0.282084 -1.97656 -0.593412
        1.37672 -1.74986 -1.04271
        0.197191 -1.72979 0.742446
        0.22934 -1.09784 1.25722
        0.973929 -0.665142 -1.41052
        1.08732 -3.00172 0.0555401
        -0.456369 -1.57034 -1.13289
        1.0067 -1.99999 0.973014
        0.998784 -0.5741 0.473154
        0.0855767 0.328541 -1.53858
        0.515785 0.264015 -0.548802
        0.277926 -2.21877 0.0129684
        1.23517 -2.06121 1.39741
        -0.633807 -0.817384 0.37172
        -1.5298 -1.27387 0.455707
        0.943108 -1.66601 -0.172745
        1.02808 -1.18357 -0.0151842
        -1.05181 -1.8998 -1.10651
        -0.586523 -1.40519 -0.464328
        0.716713 -0.0267067 0.869218
        -0.651231 -0.925031 0.986341
        -0.259987 -1.3703 0.0265581
        0.586866 -2.61007 -0.0832498
        -0.341122 -3.42232 -0.301902
        -0.425801 -1.13682 -0.660536
        0.136971 -0.699417 -0.89838
        1.03493 -1.97332 -0.448824
        -0.196924 -1.21951 -0.592633
        -0.620322 -1.3961 0.124748
        -0.279615 -1.42761 0.982885
        0.522948 -1.09393 -0.70378
        0.404908 -2.06387 0.460129
        -0.205907 -1.18775 1.05572
        1.60482 -1.68189 -0.382486
        0.347203 -0.914536 -0.0559523
        -0.985526 -1.28486 1.74787
        -0.0675295 -0.685799 -1.20182
        -0.470395 -0.582178 -0.747858
        -0.716478 -0.440017 -1.39535
        -0.946613 -2.10999 1.01598
        -0.114347 -0.29113 -1.19729
        -1.67982 -1.74733 -0.175208
        -1.32192 -1.8917 0.458037
        -1.65731 -0.584272 0.129594
        0.296132 -1.67869 0.380333
        0.854193 -0.533838 0.172472
        0.885637 -0.6711 0.429445
        -0.498275 -3.07067 -0.56401
        -0.199993 -1.97009 0.480309
        -0.392478 -1.82356 -0.174283
        -0.484036 -1.77347 0.10474
        -0.703821 -1.64824 -0.0381653
        0.743871 -0.401674 1.78752
        -0.361142 -1.5174 -0.36684
        1.02106 -0.372065 -0.244963
        -0.325793 -0.756037 0.943851
        -0.979502 -1.95193 -1.28965
        0.848299 -0.570923 -1.26989
        -0.928145 -1.11429 2.02747
        1.07642 -2.37456 -0.469303
        0.344617 0.291207 0.281101
        -0.0457495 0.502286 -0.0572242
        -0.471284 -1.0991 0.668547
        -0.843744 -1.02917 0.241767
        1.45325 -1.96392 0.447882
        -0.585488 -1.14041 0.391082
        -0.271896 -1.63554 0.933427
        -0.718467 -1.02979 0.678064
        0.526598 -1.42083 0.871499
        -0.115981 -2.49929 0.0858138
        0.567239 -0.888018 -0.978428
        0.753536 -0.609447 -0.0520833
        -1.60138 -1.27044 -0.45625
        -0.210377 -0.250489 -0.142371
        1.11196 -2.38962 -1.18651
        0.00428445 -1.22118 -1.01827
        0.439224 -1.7457 1.17335
        0.278793 -0.360575 -0.521256
        -1.40717 -1.04134 0.129898
        0.31455 -1.0866 -0.110185
        0.458436 -0.314136 0.834836
        0.995201 -1.65716 -0.785395
        0.300706 -0.387115 0.935263
        -0.221803 0.14558 -0.608422
        -0.440277 -1.30996 0.00758313
        -0.876141 -1.1576 -0.283925
        1.19397 -0.821803 -0.247579
        -0.51961 -0.122315 0.51383
        0.421148 -3.10853 -0.335888
        -0.294157 -1.27972 -0.224827
        -0.104711 -1.81666 -0.303674
        0.558627 -2.58109 1.43851
        0.0863509 -1.36879 -0.188511
        -0.733908 -1.52838 0.125279
        1.38611 -0.00104569 -0.586822
        -0.0837202 0.77228 -0.3763
        -0.637004 -3.08711 1.05715
        -0.449198 -0.451601 -1.05029
        -0.321375 -0.744231 -0.909796
        0.41027 -2.08555 -0.820992
        -0.40817 -0.999298 -1.36541
        0.391196 -0.8809 -1.08512
        0.1399 -0.250517 0.139618
        0.564322 -0.995545 -0.724119
        0.449171 -0.80878 0.17102
        -0.712676 -1.18778 0.264986
        0.404949 -1.95947 -0.702393
        0.0940424 -0.24778 0.359759
        -0.422844 -0.856017 -0.141653
        -0.174047 -2.323 -0.374291
        -0.281148 -2.03236 1.59515
        0.586571 -1.62095 -1.11224
        0.435869 -2.45574 0.00532027
        -0.198804 -0.786679 0.443312
        0.114839 -2.55313 0.682581
        1.07717 -1.63181 0.227577
        -1.38448 -1.32978 0.0425052
        2.02017 -0.717223 -0.272838
        0.399786 -0.707503 -0.762436
        -0.746248 -2.39899 1.05154
        0.65772 -1.99326 1.23795
        0.0474661 -1.23867 0.620579
        0.00302136 -1.23221 -0.414845
        -0.714775 -0.170724 0.372159
        -0.869648 -0.935646 -0.644395
        0.00433968 -1.80788 0.369571
        0.20317 -1.60037 -2.21284
        -0.254545 -1.41151 0.890332
        0.279917 -0.368524 0.294311
        -0.748893 -1.46865 0.439927
        0.907056 0.0618903 -0.025024
        -0.381492 -1.86007 -0.566945
        0.673603 -1.5777 -1.31927
        1.10192 0.891509 0.459341
        -0.63131 -1.72899 -0.477083
        0.408148 -1.44929 -0.366742
        0.835728 -0.89985 0.42156
        0.56099 -2.35685 0.198595
        -0.0339789 -1.89189 -0.622433
        -0.416896 -1.57196 0.0106394
        0.267783 0.258042 -0.770778
        -0.53399 -0.66328 -0.252289
        -0.673503 -1.12537 1.01874
        -0.245817 -0.904935 0.460045
        0.0252586 -0.468608 0.337603
        -1.06814 -1.95995 -1.76332
        0.894072 -1.46988 -0.672256
        0.12351 -1.78891 -0.358958
        -1.49502 -1.66785 0.802692
        1.30607 -2.58062 1.74183
        0.438255 -1.37903 -1.22229
        -0.657736 -1.11731 1.14337
        -0.00190161 -1.08275 1.76168
        0.615749 -1.08776 -0.809897
        -0.78414 -1.62933 -1.79539
        -0.550119 -1.23341 -0.0210572
        -0.992491 -0.482197 0.376069
        -2.47534 0.0968632 1.1236
        -0.953466 -0.961411 0.255223
        -1.15765 -1.60413 -0.348878
        -0.742968 -0.675344 -0.118572
        0.0365265 -0.357617 -0.507888
        -1.09609 -1.7239 1.41937
        -0.533941 -0.705116 -0.122042
        -1.65866 0.203501 -0.400219
        -0.315879 -1.06049 0.585171
        -0.428746 -1.10957 -0.541791
        -0.167776 -0.829432 -0.777869
        0.90122 -0.15295 -0.395876
        1.08422 -1.48621 1.5392
        -0.0950439 -0.314168 -0.516514
        1.24164 -1.10756 -1.1084
        -0.31262 -0.734801 -0.0413336
        -0.111663 -0.622755 0.663803
        0.223018 -1.45563 -0.556797
        0.272232 -2.79208 -1.26039
        0.357705 -0.920702 0.228943
        -0.384152 -0.436616 1.27239
        -0.0307044 0.930338 0.269294
        -1.61934 -0.455034 -2.13118
        -0.435785 -1.40977 0.821254
        -0.700758 -2.05092 -0.898218
        0.894953 -2.33484 0.963303
        -1.04963 -1.53998 0.506375
        -0.26258 -1.46135 0.829212
        0.0697843 -0.378158 1.22445
        -0.924926 -1.21271 0.108428
        -0.329076 -0.473308 0.705108
        0.251921 -1.59978 0.437727
        0.751849 -0.472323 0.373407
        -0.385824 -1.29182 -1.37616
        -0.958267 -0.0609531 0.395118
        0.351561 -0.117454 0.625407
        2.06486 0.256331 -0.447779
        -0.716091 0.225791 1.23063
        -0.695978 0.535612 0.116457
        0.591128 -0.83619 -0.312189
        -0.167585 -0.870716 1.17584
        -0.350802 0.303534 0.255465
        0.196712 0.825022 0.387926
        0.987601 1.28936 0.632394
        0.967557 0.139081 -0.152162
        0.768639 0.0767678 -0.15961
        1.65356 1.23003 0.387654
        0.694799 -0.523498 -0.465173
        0.442276 0.457045 -0.410362
        0.0248756 -0.355554 0.227416
        -0.0513248 0.141864 0.597887
        0.690428 1.43743 -1.54344
        -0.385581 0.0921737 0.42928
        0.234763 1.64306 0.939521
        0.975406 0.0783272 -0.215371
        -1.41668 0.569486 0.0824296
        -1.05962 2.40639 0.611412
        -0.176723 -0.248082 -0.039769
        -0.154531 1.27048 1.20312
        0.341875 -0.300375 0.266914
        0.649585 0.395481 -0.910977
        -0.992905 1.21153 1.15582
        -0.436838 0.624736 1.14118
        -0.929012 0.0180763 -0.0556652
        -1.15385 1.16234 -0.921752
        0.64596 0.964007 0.206675
        0.0819582 1.24296 -0.424484
        -0.00378608 2.36321 0.254177
        -0.102341 0.631981 1.74486
        -0.727985 1.48659 1.73371
        0.430232 1.53028 0.15868
        0.68852 0.815295 -1.33311
        1.06583 1.38253 1.05375
        0.651071 1.64469 0.44282
        -1.50006 -0.350512 -0.0759088
        -1.03335 1.92314 -0.517973
        -0.516032 2.0875 -0.142011
        0.68839 1.51646 -0.275583
        -0.367107 1.10488 -1.17465
        -1.15078 -0.184564 0.848933
        0.398715 0.80045 -0.895053
        -1.19631 0.423759 0.515032
        0.790558 2.25086 -0.478732
        -1.47318 1.57509 -0.0451513
        -0.781217 1.69637 -0.278997
        0.779015 0.314795 0.66368
        -0.125409 2.81686 0.00958572
        -0.0410416 1.4178 1.05796
        1.13864 0.453829 -1.03819
        -0.476221 2.01392 -0.459502
        -1.05331 1.54341 -0.0525881
        -1.8244 1.00794 0.347037
        -0.185471 2.67057 0.519663
        -1.14058 1.28613 -0.556612
        0.395918 1.65398 1.42592
        -0.647155 2.03883 0.976657
        1.13088 1.86045 0.581347
        -0.159318 1.36992 -0.488732
        0.609495 1.24512 -0.0211735
        -0.902184 0.875285 1.25004
        1.29292 0.100903 -0.380161
        0.203614 0.182914 0.222652
        0.00385649 1.08319 -0.129038
        -1.8256 1.97979 -1.64019
        0.499955 0.133516 -0.480943
        0.210407 1.36462 -0.292054
        -1.1672 1.89632 0.406069
        -0.244643 1.40458 0.117407
        -0.17297 1.19211 1.17915
        -0.361774 1.93531 -0.534624
        0.920915 1.41032 -0.0417557
        0.802303 1.13401 0.394102
        0.20321 0.334529 1.29668
        0.0636591 3.20616 0.0274924
        0.103068 0.437357 -0.459316
        0.158324 1.25997 0.296804
        -0.680247 0.437053 0.164934
        -1.22356 1.75599 0.770042
        0.0606582 2.78557 0.15123
        -0.493612 1.68598 -0.838018
        -0.996994 1.49524 0.720808
        -0.118274 1.12774 0.752622
        -1.07976 0.620637 -1.06517
        -0.729996 2.59696 1.18504
        -0.580936 1.58516 -0.295691
        -0.363338 0.447834 -0.238361
        -1.01939 0.568712 -0.115968
        -1.07766 2.06255 0.808749
        0.263313 0.877556 -0.825561
        0.212281 0.747996 0.598831
        0.394664 1.21342 0.608719
        0.353392 1.16822 -1.43027
        0.362182 1.3973 0.794894
        -0.440729 1.70187 -0.587498
        -0.048495 0.475069 -0.0686692
        1.54191 0.710147 -1.15517
        0.227304 1.26304 -0.705772
        1.53747 1.78423 -1.16992
        1.31848 1.77889 -0.310723
        0.527497 1.95941 -0.0731332
        0.308453 2.00317 -0.387787
        0.851511 1.73605 0.275835
        0.674296 1.30623 0.314894
        -1.30363 1.53584 1.23359
        0.456767 0.569269 1.30661
        0.353476 1.40428 0.177598
        -0.767035 0.933146 0.433685
        -0.0252478 1.56066 0.271431
        -0.27103 1.30305 -0.00944767
        -0.0813596 2.04025 -0.752489
        0.748832 0.489529 0.278588
        -0.86445 2.91689 -0.749026
        0.521787 0.0581304 0.910133
        -0.140986 1.62597 0.988105
        -1.35451 2.181 -0.669456
        -0.277273 0.554358 -0.705639
        1.74798 0.57763 -0.687898
        0.846234 0.654799 -0.905664
        0.689798 0.986036 0.370982
        0.26344 2.39675 1.9359
        0.297746 2.05769 -1.44071
        0.565664 0.950319 0.792457
        0.114353 1.99103 -0.46307
        0.352925 1.84933 0.108328
        0.45374 0.0634951 -0.332426
        -0.957573 2.27875 -0.819438
        -0.376658 2.1119 0.346118
        -0.371978 1.02534 -0.287606
        -0.472393 0.754318 0.365087
        0.067004 1.67148 -0.0860566
        1.59143 1.33563 0.0963813
        -0.929321 2.47823 -0.762772
        0.44757 1.15162 -0.0010852
        0.308096 1.01731 0.32053
        -0.429849 2.88077 -0.224341
        -0.374569 0.980599 -0.817744
        -1.38918 0.161801 -0.383528
        -0.388822 1.68524 0.277539
        0.381272 1.13624 -0.794339
        0.411847 2.12578 0.179978
        -1.03418 2.07942 0.387366
        -0.358409 0.516237 -0.757264
        -0.0357826 2.29751 0.889031
        0.129761 1.40083 0.901129
        -0.848556 1.28429 1.23623
        -0.235165 1.06367 0.0335751
        0.0860426 0.402967 -0.613515
        0.696402 1.69689 0.0218583
        -1.25447 0.905606 -0.0533799
        -0.0969761 1.28097 0.0326863
        0.0114348 1.44699 -1.08359
        -0.930273 1.29853 0.245454
        0.573659 1.08997 -0.48508
        0.0327547 1.13882 0.296471
        -0.789699 0.570171 0.514606
        0.128942 0.561021 -0.368919
        0.490211 0.961522 -0.531627
        0.332077 0.676636 1.23875
        -0.331733 0.492535 -0.461574
        -1.17708 1.51674 -1.03881
        -0.972014 1.09927 0.780891
        -0.838577 0.047887 -0.37198
        0.359622 1.36531 0.229089
        -1.05085 1.06792 -0.0588648
        0.654763 0.981193 -0.222794
        -0.391142 1.69178 1.57073
        0.515211 1.02982 -0.150394
        -0.627609 1.05621 0.828881
        0.641496 2.33929 1.02992
        -0.40314 0.845155 -0.801664
        -0.698306 0.690263 1.06223
        0.94679 0.0812487 -0.0284356
        -0.56094 1.78137 0.468254
        1.146 1.76128 -0.0553905
        -1.45147 -0.460896 1.43548
        0.426224 -1.6138 -1.66068
        -0.378302 -0.728415 -0.0426833
        0.800825 -1.09569 1.1397
        -0.102469 -2.43122 0.498745
        -0.250614 -0.777583 0.639976
        0.291439 -1.52778 -0.144276
        0.100602 -2.19323 0.0453342
        -0.375891 -3.30247 0.00737705
        0.604183 -2.73096 -0.210111
        -1.04609 -1.33554 0.722277
        0.719824 -0.997777 1.56983
        -0.0627355 -2.82243 -0.353504
        -0.0418066 -1.37264 0.336293
        1.87195 -1.95513 0.24937
        0.434554 -2.01377 -0.343581
        0.590394 -2.20348 1.05301
        -1.6515 -1.7515 1.13172
        0.623986 -1.55635 0.305188
        -0.103548 0.171585 0.107303
        -0.533124 -1.07945 -0.354882
        0.454017 -0.337784 0.351536
        -0.253472 -1.87558 -0.713864
        1.15209 -1.49484 -0.50084
        -0.192502 -1.86385 -0.588652
        1.48161 -1.90476 0.733875
        -0.587635 -0.312539 -0.504078
        -0.411492 -0.869088 2.48987
        0.574368 -2.2563 -1.18692
        0.601829 -1.40815 1.02695
        -0.267537 -1.57813 -0.102545
        -0.571752 -0.903241 -0.797132
        -0.839981 -0.721231 0.261349
        -0.0725984 -1.50077 0.269787
        -0.378688 -0.534359 -0.390437
        -0.388091 -1.45175 -0.236883
        -1.34103 -1.3331 0.464355
        0.600203 -1.60345 0.090303
        0.516689 -2.02528 -0.0196534
        0.0509103 -0.108038 1.56265
        -0.303665 -1.68354 -0.592148
        -0.618226 -1.79078 1.05655
        -0.0299855 -1.73792 0.00926888
        -0.319059 -1.21899 -1.24298
        -1.49601 -1.29335 -0.599333
        0.399494 -0.643739 0.145822
        -0.872573 -1.38375 -0.708983
        -1.85298 -2.37043 1.05368
        0.30403 -1.19927 -0.495865
        1.61399 -0.464466 0.631907
        -0.7131 -1.23944 -0.0970562
        0.346472 -1.25946 0.579636
        0.739073 -1.22541 0.314197
        -0.473336 -1.07265 -0.368149
        0.345246 -1.61472 1.2185
        -0.848187 -0.222319 0.300988
        -0.160225 -0.740156 0.261489
        0.704368 -1.38102 -0.399991
        0.325062 -1.23675 -0.132149
        -0.451493 -0.765276 0.108165
        0.0104239 -1.77162 -0.734878
        0.666504 -1.83561 -0.558521
        -0.204742 -1.51807 -0.822294
        -1.62688 -1.0615 0.187526
        0.840712 -1.0891 0.748741
        0.107371 -0.362407 1.52013
        0.731243 -0.995023 0.662798
        -1.12607 -2.32488 0.388367
        0.824998 -1.46102 -0.571929
        0.238939 -0.918543 -0.221158
        0.358999 -1.14139 0.142381
        0.551304 -1.66415 -0.218354
        -0.225143 -2.02189 1.87966
        0.824789 -2.85097 1.49774
        -0.663152 -0.925052 0.245218
        0.898005 -1.12257 0.227213
        0.763828 -1.20986 -0.18123
        -0.671269 -0.491023 -0.3553
        1.02777 -0.574096 -1.09496
        -1.40235 -2.05588 1.34088
        0.999187 -1.5254 0.288574
        -0.619922 -1.47563 -0.246032
        -0.504169 -0.0558809 0.757085
        -1.36824 -2.2541 -0.418422
        -0.693413 -0.958574 -0.447448
        0.491969 -1.0588 1.0405
        -0.489358 -2.83525 1.61239
        1.03495 -1.05909 1.28919
        1.28117 -1.32477 0.497899
        -1.39419 -0.0194882 0.541534
        -0.126777 -0.414013 -0.435387
        0.641264 -2.20965 1.32426
        0.275913 -0.911369 -1.10044
        -0.613527 -2.189 0.917177
        -0.0914476 -0.66163 1.03261