<?xml version="1.0" encoding="UTF-8" standalone="no" ?>
<VTKFile byte_order="LittleEndian" type="UnstructuredGrid" version="0.1">
  <UnstructuredGrid>
    <Piece NumberOfCells="0" NumberOfPoints="1764">
      <PointData>
        <DataArray Name="velocities" NumberOfComponents="3" format="ascii" type="Float32">
        -0.238412 -0.387906 1.18414
        -0.335599 -1.60893 1.66475
        0.483547 -1.66055 0.24885
        -0.365939 -0.729793 0.690107
        -0.331421 -0.889158 1.08693
        -0.927311 -0.452588 -0.868242
        0.255164 -2.26256 -0.331548
        -0.116426 -0.982551 0.704269
        -0.437977 -1.58025 -0.117135
        -0.51889 -1.33061 0.0940927
        -1.12397 -1.59462 -0.528535
        1.41959 -0.374159 -1.03327
        1.58444 -1.15976 0.263997
        0.561863 -1.27316 -0.159737
        0.572975 -0.624939 -0.277157
        0.944985 -0.517967 0.463636
        -0.687604 -1.51815 0.931238
        0.169769 -1.06739 -0.251854
        -0.446166 -0.870249 0.727241
        -0.219974 -1.83117 0.589014
        0.56436 -2.3114 0.562316
        -1.25801 0.479533 -1.04316
        0.343596 -1.50453 0.0583063
        -1.3131 -1.14052 0.880754
        -0.117459 -0.661022 -0.433478
        -0.739894 -0.702498 1.37269
        0.0738681 -2.24581 -0.326331
        -1.14365 -0.514245 -0.276254
        -0.115949 -0.20917 -0.135308
        1.2585 -0.927144 0.208051
        1.00989 -1.57431 -0.164648
        0.712662 -1.78603 0.805079
        0.0291861 -0.386646 0.699095
        -1.03074 -2.20565 0.744739
        0.0766841 -1.5535 0.111303
        0.310205 -1.10381 1.45028
        0.660431 -1.55592 -1.21488
        -0.974121 -1.80924 -0.204641
        1.24106 -0.497598 0.0702475
        0.880609 -0.0568798 -1.44674
        0.624657 -2.88632 -0.549984
        -1.13144 -1.71914 -0.501858
        -0.0649459 -0.498897 0.334675
        0.997396 -1.35049 -1.58346
        0.0757063 -2.61406 0.302532
        1.20835 -1.83099 0.0105479
        -0.351678 -0.826221 1.11292
        0.758839 -1.24082 0.124856
        0.457137 -0.754675 0.523685
        -0.581861 -0.374779 -1.01126
        -0.217262 -0.983173 0.0268423
        0.850742 -2.55516 0.540134
        0.105894 -1.1821 -0.420942
        -0.534927 -0.907244 0.0263705
        0.365859 -1.08199 -0.146416
        -0.548028 -0.961046 0.318583
        -0.432296 -1.99959 0.290693
        -0.686429 -2.47372 -0.278164
        0.610264 -1.65962 0.0526884
        0.467401 -0.647504 -0.204811
        -0.418271 -1.93521 -0.210657
        0.946909 -1.19882 -0.488683
        0.595502 -0.248689 0.173297
        -1.557 -0.413938 1.12675
        -1.61286 -1.04649 -0.350306
        -0.803512 -0.357895 1.40941
        0.255048 -1.56332 0.127479
        1.09123 -1.35934 -0.610721
        0.230282 -1.06273 -0.162731
        -0.24237 -1.76393 0.182327
        0.781783 -0.760062 -0.192658
        1.16057 -1.27455 0.0906101
        -0.740176 -0.564306 -0.10049
        -0.0689103 -0.99627 -0.341433
        -0.542307 -1.89168 0.100084
        -0.682211 -1.30412 -0.387677
        1.17154 0.642729 0.29387
        -0.944499 -1.95678 0.00225351
        -0.269331 -1.45524 -0.522448
        -0.243839 -1.37825 -0.909524
        -0.907608 -2.81474 0.366167
        0.544544 -1.75054 0.280775
        -0.020821 -0.948566 -0.744966
        -1.1613 -0.810869 -0.0589147
        1.30623 -2.8822 0.288391
        1.03504 -2.33252 0.410416
        -0.202909 -2.26344 0.46552
        1.00016 -1.88251 -0.738147
        1.73736 -1.55113 -0.828436
        -0.827807 -0.287463 -1.01051
        0.422378 -0.564795 -0.510564
        0.248103 -2.29803 0.657294
        1.18275 -1.19411 -0.662462
        -0.687339 -2.0493 0.157069
        -1.32759 -1.56734 -0.383627
        -0.758429 -0.97764 0.254121
        2.19311 0.0288192 -1.09674
        -0.786776 -0.769375 -0.686225
        -0.792166 -0.866061 1.48614
        -0.472925 -1.84732 -0.608513
        0.815139 -2.20022 0.338864
        -0.219368 -1.35205 -0.794838
        0.883907 -1.29707 0.217494
        -0.689279 -1.12884 -1.14584
        0.530545 -0.241553 -0.0624679
        0.796154 -0.694043 -0.742822
        0.526856 -0.870976 -0.295609
        0.627811 -0.498804 0.109908
        1.27324 -1.92321 1.04887
        0.408889 -1.23425 1.09887
        2.22781 -1.93106 -1.49029
        -1.09549 -1.29206 0.241445
        0.869396 -1.28745 -0.874072
        0.953148 -1.08253 1.57095
        0.403884 -1.85112 -0.778009
        -1.19244 -1.99378 0.211507
        0.0336319 -1.41827 -0.886533
        -1.21556 -2.21834 -0.23948
        -0.775868 -1.61615 0.871451
        -0.0566092 -0.419966 -0.0520504
        -0.935396 -1.50899 0.52382
        -0.858152 -1.78524 0.401023
        0.105545 -2.55493 -0.297902
        1.6686 -0.685765 -0.795622
        -1.23963 -2.31465 -0.872511
        0.36243 -1.54118 -0.869821
        -0.758795 -0.45915 0.296472
        0.894759 -0.705487 -0.0831477
        -0.151209 -0.542712 1.03168
        -0.194623 -1.12461 -0.156934
        -1.04408 0.34707 -0.612321
        0.261942 -1.37028 -0.371057
        0.24518 -1.11006 -0.454757
        1.01444 -2.4137 0.743557
        0.265538 -1.04625 0.428057
        0.234889 -0.800384 0.949953
        -2.21882 -1.32787 -1.48435
        0.24371 -1.42087 0.0272402
        -0.63284 -1.36952 -0.0966248
        0.553429 -2.10602 -1.14025
        0.252661 -2.78218 0.414053
        -0.971372 -0.405878 -0.0187254
        0.472475 -1.76498 0.740358
        0.624327 -1.73252 -0.14738
        0.0530474 -0.474295 -1.32746
        0.0937674 -0.0183184 1.32563
        -1.25206 -0.0797864 -0.799317
        -0.175548 -2.63743 0.512988
        0.637082 -0.887089 -0.478149
        1.08492 -0.0662187 1.2638
        0.37453 0.0692666 1.0807
        0.580478 -1.68718 0.795295
        -0.623055 0.52953 0.457855
        -1.10772 -0.0469512 0.20829
        -0.280218 0.153955 -1.67164
        -0.301127 -1.57322 -1.51252
        -0.769303 0.206134 0.118634
        0.364728 -1.16277 -0.275866
        1.11656 -0.182194 -0.268976
        0.117823 -0.751724 0.158621
        -1.00005 -0.844181 -0.519796
        0.381207 0.50436 -1.04684
        -0.439095 -0.723953 0.66412
        -0.346568 -0.0542856 -0.666896
        0.199332 -2.39941 -0.635867
        -0.558233 -1.10448 0.405746
        0.765929 -2.13856 0.65137
        -1.12039 -0.56114 -1.79879
        -2.21105 -0.552156 -2.16699
        1.62477 -2.20053 -0.234688
        -0.642822 -1.30683 -0.933062
        0.0860872 -1.60367 0.554638
        -2.13022 -1.5195 0.157368
        -0.759082 -1.37936 0.644884
        -1.86656 -3.15293 -0.790362
        1.29732 -1.05344 0.310746
        -0.144457 -0.402836 0.15783
        -0.150492 -0.0465378 1.89604
        -0.0538697 -1.59216 -0.0653956
        0.0320495 -0.777624 -0.119631
        -1.34065 -0.999546 -1.08011
        0.112158 -1.43305 0.136367
        -0.363156 -0.228381 -0.444854
        0.468191 -0.34678 0.994802
        0.784757 -0.321771 -0.100401
        -0.652381 0.882734 1.12966
        1.18145 -0.738213 0.0633992
        -1.36294 0.562737 0.0443211
        -0.306552 0.635023 -0.581861
        0.973994 1.67902 -0.059619
        -0.400563 0.180211 -0.255612
        0.526048 1.0034 -0.119262
        -0.548729 0.798236 0.269224
        -0.843172 1.44355 0.6727
        0.644202 0.37236 -0.301625
        0.342112 -0.283988 0.560837
        0.0419133 -0.404681 0.228539
        0.220219 0.747181 0.248704
        0.584852 0.201167 -0.0545988
        0.179024 2.00442 0.166843
        0.889657 0.554881 0.219576
        1.67199 2.07488 1.1446
        1.90867 1.97456 -0.775942
        0.122391 2.20599 0.528452
        -0.876464 0.439277 0.456149
        0.358585 0.236424 -0.21024
        -1.33009 1.61934 -0.464986
        -0.868414 1.54285 1.26728
        0.273368 2.31283 1.32984
        -0.0555502 1.35648 1.05035
        0.201254 2.81267 -0.131934
        0.957499 2.11276 2.33055
        0.565198 0.692468 -0.941385
        0.432738 1.71416 0.830917
        -1.36373 0.754011 -0.685282
        -0.962187 0.0924997 0.343904
        1.6395 1.75177 0.372929
        0.354205 1.09626 -0.6342
        0.44451 1.18212 -0.692592
        0.407208 1.02367 -0.0933661
        -1.05117 0.392324 -0.000126356
        -0.0157684 1.48847 0.560233
        -1.63866 2.61916 -0.450029
        0.915589 1.94794 -0.0384757
        -0.789443 2.38769 0.0558544
        -0.798585 1.79715 0.467638
        1.09024 0.401854 0.590872
        -0.378485 0.104863 0.392067
        -0.241899 1.58543 -0.00413932
        0.634212 1.62021 -0.497439
        1.01789 1.61367 -0.303625
        -0.883606 1.52105 0.00555282
        0.190012 1.21601 0.674797
        -0.238124 -0.057493 -0.574738
        0.435359 0.562631 0.338773
        0.14962 0.844999 0.9799
        -0.701383 1.79519 0.504468
        0.0327232 2.15294 0.246349
        -0.179536 2.35815 0.205503
        -1.26783 2.08221 -0.510974
        -0.973082 0.744012 0.791919
        -0.219022 1.07085 0.21136
        0.456905 0.632305 -0.00171279
        -1.28504 0.793983 0.889297
        -0.623735 0.722426 1.1201
        0.938173 0.641878 -0.113181
        0.538719 0.39782 1.43717
        -1.43709 2.30058 -0.157887
        -1.37069 0.953764 -1.99432
        0.534231 1.512 -0.479643
        -0.207843 1.66778 -0.486357
        1.20009 1.06578 0.635593
        -0.3017 1.71289 0.00826549
        1.08052 2.63687 0.812682
        -0.497091 1.67817 -0.750494
        -0.841797 0.608925 -0.232092
        -0.0999798 0.273941 -0.150228
        -1.20963 2.21914 0.842908
        0.772276 1.48976 -0.488124
        -1.26023 1.19482 -0.472081
        0.315988 1.13732 1.01494
        -0.202666 1.43477 -0.00129496
        0.263558 1.01291 1.33961
        -0.127808 2.11252 0.0907352
        -1.21003 0.328849 -0.122575
        -0.306422 0.754013 -0.329448
        -0.522747 1.85336 -1.07395
        0.448229 1.24921 -0.26254
        -0.678605 1.24116 1.04597
        0.536393 0.30441 0.0886671
        0.0966362 1.30521 -0.801217
        0.190328 1.39864 0.278854
        0.774182 0.758623 -0.909876
        0.116672 0.864371 0.172713
        0.101756 1.68711 -1.59502
        0.0347883 1.40526 0.681876
        1.19606 0.980207 0.166166
        -0.310457 1.5214 0.0305016
        0.471952 2.42742 -0.572744
        -0.00168015 0.583044 -0.564461
        0.0943211 0.480746 -0.668513
        0.312093 1.48839 -0.705524
        -0.141598 1.40939 1.12125
        -1.21922 2.2213 1.43256
        -1.62207 -0.0719269 0.315005
        -1.54796 -0.547565 0.480149
        1.18028 0.323753 -0.117113
        0.130204 2.60583 0.157049
        0.622787 2.37878 0.0564343
        0.527365 0.56447 -0.359421
        0.0144133 1.6737 0.387773
        0.155403 2.27513 0.373463
        0.127779 1.71652 -0.617243
        0.484093 0.463753 -0.00752915
        0.477918 1.35325 0.394891
        -0.790755 0.726494 1.04306
        0.765382 1.43999 0.794234
        0.660216 1.70502 0.575961
        -0.523916 1.18015 -0.0200292
        0.608213 0.405457 1.36078
        0.0203938 0.417801 -0.550687
        0.189623 0.889815 -0.12595
        0.138144 1.5079 -0.399131
        -1.26503 2.26313 1.66562
        -0.937743 1.08353 -0.125107
        1.41926 2.05544 -0.0655325
        0.109259 1.39963 -1.29975
        0.00927467 1.58733 -1.66364
        0.784804 1.63997 0.633351
        0.724936 1.98075 0.359268
        0.5728 2.99998 0.153264
        0.101404 -0.430182 -0.376248
        0.633101 1.02511 -0.0284666
        0.883295 0.675467 -0.166334
        -0.545726 1.58703 -0.956196
        0.290753 2.0959 0.103845
        -0.691236 0.752122 -0.288024
        -1.00862 2.18888 -0.96121
        -0.229398 0.685161 0.534808
        -0.200996 1.69352 -0.432107
        -0.0481964 1.812 1.02488
        0.531049 1.07258 1.78228
        -0.65974 1.16264 -0.403806
        -1.40283 1.31734 -0.0101221
        -0.506854 1.18786 -0.00129911
        -0.853917 2.40651 -0.133904
        0.704637 0.456998 -1.82147
        -0.0710003 2.01092 -0.440734
        -0.911574 2.6947 0.285311
        -0.136995 1.15552 0.995643
        0.425092 1.82757 0.238182
        -0.338822 1.39661 -0.228577
        -0.935388 1.78022 0.126249
        -0.976616 0.438134 1.37819
        -0.520953 1.553 -1.53428
        -0.32906 1.60585 0.317374
        0.365562 1.39027 -0.528539
        0.291808 0.861802 0.417856
        -0.90562 0.607265 -0.0551809
        0.76348 2.40248 0.0768413
        -0.861566 1.10171 -0.257609
        0.245544 2.27923 -0.541739
        -0.729258 1.56204 -1.05058
        -0.896232 2.36124 -0.467896
        0.484247 1.65242 0.114814
        0.454057 0.487141 -0.0849362
        -0.45064 0.755712 -0.540978
        0.672132 0.687563 -0.106399
        -0.131798 0.458758 0.480855
        0.716556 1.8623 -0.236015
        -0.446252 2.3408 0.223734
        0.824117 0.748382 0.412236
        -0.68312 1.56661 0.234125
        -0.377417 1.58489 -0.983694
        1.26675 0.240878 -0.508272
        0.309732 0.935339 -1.20114
        0.0965931 1.75886 0.162564
        0.455965 2.68923 0.532476
        0.913736 2.97237 0.769373
        -1.85467 1.82251 0.326296
        -0.514816 1.93701 0.244214
        -1.18114 0.556025 0.187695
        -0.7306 1.09358 -0.0862454
        -1.0153 1.72346 -0.966365
        -1.70185 0.479018 -0.188272
        0.189659 1.24847 -0.048012
        -0.635644 0.981525 0.440389
        0.0787676 1.34505 0.623419
        -0.17524 1.5908 0.594785
        0.78594 1.03738 0.896297
        -0.144729 0.518858 -0.498647
        -0.50531 0.930102 -0.434328
        0.937124 -1.31409 -0.107428
        0.0324 -1.60437 0.260376
        0.902823 -2.41585 -0.535748
        -0.139113 -1.75219 0.0342746
        -0.580185 -1.49366 0.313564
        0.156649 -0.493786 -1.67876
        -0.992087 -2.01014 0.0934137
        0.453822 -1.62223 -0.361232
        -0.722914 -1.92214 0.875299
        0.103654 -0.00657636 -0.328598
        1.49798 -0.640979 -0.407253
        -0.156692 -1.22245 0.32284
        0.277684 -1.34569 -0.594354
        -0.095101 -0.287126 0.646154
        0.709394 -1.47477 0.152796
        0.496991 -1.54892 1.91568
        -1.33872 -1.24874 -0.786694
        0.373993 -1.57607 -0.32408
        -0.154127 -1.67204 -0.623947
        0.714737 -1.09636 0.990166
        0.23111 -1.8716 0.021564
        -0.269962 -1.18374 0.355846
        -0.412702 -1.20873 0.589227
        1.30306 -1.53287 -0.252665
        -0.0540263 -0.86076 -1.2799
        -0.554997 -1.73351 0.10401
        0.208806 -0.298951 0.911248
        0.0772757 -0.626536 -0.394563
        0.121974 0.597494 0.94076
        -0.852754 -0.477597 0.705458
        -1.36808 -1.97491 0.861541
        1.06909 -1.91988 0.538598
        0.370937 -0.98328 -0.435535
        -1.30497 -0.715183 0.298688
        -0.653296 -0.175483 -0.280597
        -0.742062 -1.1664 0.793868
        -0.651358 -2.53883 -1.40233
        0.56464 -0.520128 0.737203
        0.0104989 -2.08281 0.631776
        -0.110859 -1.47207 -0.208483
        -0.0688206 -1.1174 0.325591
        0.709207 -1.41898 -0.37205
        0.738503 -1.81663 -0.827944
        -0.193666 -1.01167 -0.273042
        0.971353 -0.848418 0.490506
        -0.511311 -1.59586 0.519854
        0.905167 -1.78656 -0.602421
        -0.313995 -1.15356 -0.12938
        -1.10145 -0.900411 0.114798
        0.535915 -1.13948 -0.602079
        0.146101 -1.78976 -0.118272
        0.69638 -1.27044 -0.133403
        -1.75103 -0.526497 -0.514975
        0.307828 -0.680811 -0.22339
        -0.647083 -2.19768 0.0275435
        0.845583 -0.927728 1.58338
        -0.0494741 -1.26372 0.553215
        -0.828547 -0.447571 -0.783773
        0.704327 -2.06328 -0.0697069
        -0.307545 -1.55216 -0.508855
        -1.18524 -2.00722 -0.763115
        0.0465434 -1.81626 -0.405782
        -2.12749 -1.67976 -0.748054
        0.766607 -0.788245 -0.342192
        -0.492804 -1.4952 0.585225
        0.892914 -2.8702 0.0563781
        -0.0850007 -1.347 -0.366116
        0.538063 -1.56531 0.283067
        1.05484 -1.39955 -0.0615007
        -0.0477894 -1.63388 -0.91475
        -0.334712 -0.56692 -0.739326
        -1.10453 -0.558418 -0.45926
        0.0322758 -1.03589 1.49245
        -0.29596 -0.875611 -0.62684
        -0.0588664 -0.0163591 0.642311
        0.130356 -1.31119 -0.414144
        -0.844986 -0.667447 -0.57837
        -0.661515 -0.441823 -0.0551086
        -0.441551 -2.70656 -0.0814407
        0.431812 -1.37371 -1.35602
        -0.40149 -1.21624 -0.884557
        -1.03442 -1.05823 0.909139
        0.235392 -1.35285 0.73428
        0.0971598 -0.896895 -0.055619
        -0.692852 -1.99448 -1.07528
        -0.508821 -1.56532 -0.358458
        -0.110463 -2.93001 0.565387
        1.23921 -2.18825 -1.03523
        0.566311 -0.420241 0.591913
        -1.09297 -0.946134 -0.334835
        -1.30002 -2.13923 0.971371
        0.832529 -1.36544 0.184525
        -1.8079 -1.11874 -0.155861
        -0.955412 -1.23051 -0.429244
        0.418669 -2.29259 -1.32166
        0.369573 -1.67601 0.328271
        0.723092 -2.32458 0.179146
        -0.205361 -0.578441 0.475178
        0.0797227 -1.19862 0.346452
        -0.426168 -1.63465 0.705122
        0.370137 -1.77137 0.414007
        -0.63624 -1.60834 -0.448499
        0.955118 0.152135 -0.963918
        -1.05227 -2.47135 0.158128
        1.55919 -1.18582 0.821365
        0.728307 -1.51064 -0.242366
        -0.471394 -1.79169 -0.202191
        1.9516 -0.983974 -0.128158
        0.329263 -2.36702 0.104952
        -0.161834 -1.64317 -0.147445
        -0.133864 -1.69964 1.18577
        -1.35202 -0.527988 -1.22434
        0.834237 -1.18591 0.705856
        -0.428568 -2.00734 -0.718371
        -0.38549 -1.98422 -0.447795
        1.12496 -1.0425 0.727572
        -0.0366715 -1.98015 -0.117896
        0.817152 -2.36373 -0.983066
        0.204214 -1.83035 0.160385
        0.340036 -1.17499 -0.233493
        0.401799 -0.800637 -0.00978445
        0.712871 -1.50093 0.256878
        -0.882814 -1.43756 0.7136
        0.479567 -0.421421 -0.717627
        0.142546 -0.841343 0.0407297
        0.512065 -0.859766 0.388892
        0.0134015 -1.61352 -1.91119
        -1.03008 -1.897 0.133811
        -1.63458 -0.784322 0.446981
        0.0494804 -1.87339 -0.383949
        -0.602065 -2.40828 0.418515
        1.04393 -1.35934 0.164792
        -0.456573 -0.740503 -0.454104
        0.661808 -2.76516 0.462707
        -0.581854 -1.29655 0.792027
        1.07701 -0.703206 -1.29701
        -0.401413 -1.52941 -0.137879
        0.123302 -1.93533 0.0760486
        0.91684 -1.98092 -0.643002
        1.20391 -0.697726 -0.499728
        0.450322 -1.65308 0.273179
        -0.228285 -0.105835 -1.14814
        1.25271 -1.40102 -0.320817
        0.32022 -0.953571 -0.171255
        -0.0375756 -0.949606 0.982874
        -0.154751 -0.955935 -0.871182
        0.012766 -1.19401 -0.123774
        -0.581492 -0.563696 -0.339567
        0.579046 -2.25948 0.124728
        0.119848 -0.110529 -0.0906414
        0.296535 -1.02415 0.187985
        -0.408307 -1.85407 -0.587019
        -1.05336 -1.73103 -1.07445
        -0.176598 -1.7801 0.577719
        0.190523 -0.835736 0.70848
        -0.110888 -1.2149 0.430268
        -0.713333 -1.28238 -0.909146
        -0.0114718 -2.21537 -0.0552982
        -0.0801582 -0.0928373 0.709706
        -0.00183375 -1.16044 -0.48693
        0.907535 -1.99435 0.341202
        -0.293629 0.272058 0.0344055
        -1.15609 -0.440122 1.61646
        -0.645717 -1.24699 0.0299322
        -0.996793 -1.46933 1.13283
        -0.702237 -0.296723 0.673928
        0.285257 -2.07469 -1.27203
        -0.652373 -1.96634 -0.831527
        -0.285832 -0.408127 0.637699
        -2.03502 -0.626066 0.575922
        -0.020595 -0.796884 -0.567479
        0.115222 -1.46162 1.13161
        -0.0411038 -2.42452 0.297214
        0.226235 -0.53915 1.00208
        -1.76152 -1.40622 -0.982849
        0.139655 0.853677 0.190236
        -0.678095 -1.33219 -0.387959
        -0.917252 -1.21341 0.116009
        -0.342866 -0.987243 0.243194
        -0.154718 -0.00589598 0.347233
        0.526366 -1.37865 0.126906
        1.87531 0.274436 -0.574851
        -0.112524 -1.07954 0.97474
        0.124444 0.024933 0.695586
        0.243563 -0.694496 -1.73771
        -0.419137 -0.485924 0.839676
        -0.895042 0.724469 1.01291
        0.756754 1.02245 -0.207206
        0.473776 -0.989082 -0.204303
        -0.696877 0.535947 0.11744
        0.518255 0.938264 -0.389294
        0.152509 0.543117 0.379075
        1.22665 0.434948 -0.068233
        0.792686 1.0286 -0.0624556
        0.523153 -0.0455045 0.351369
        0.888964 -0.984012 0.231024
        0.930868 1.4764 0.829088
        0.712381 0.0398675 0.611588
        -0.435711 0.374862 -1.17627
        0.235306 1.26955 -0.308425
        -0.645999 0.892144 -1.03626
        0.620671 0.532624 -0.3013
        0.00192236 0.928835 0.202815
        0.0337117 -0.268007 0.458359
        0.3208 0.99448 0.655691
        0.171884 -0.00315031 0.201296
        -0.172204 0.282987 0.5027
        -0.331898 1.38281 -0.463951
        -1.45961 1.19617 0.796501
        0.554325 1.54105 -0.157961
        -0.545514 0.388475 0.0131097
        0.919163 0.289387 -0.608825
        -0.577834 0.0761927 0.778207
        0.166098 0.135622 -0.458925
        -0.621422 0.460569 -0.014966
        -1.2781 1.87457 -0.842995
        -0.0822304 0.959071 1.48206
        -0.1613 1.6295 0.800687
        0.152806 0.474884 0.375675
        -0.098862 1.13133 -0.449863
        -0.282022 0.974753 1.47713
        -1.01067 2.02751 0.41252
        -0.138551 1.69048 1.7337
        -0.213045 0.139325 0.383797
        -0.379915 1.79315 0.238563
        0.763569 1.72176 -0.0565829
        -0.162823 0.4845 -2.14397
        0.501615 1.22691 0.563271
        -0.00251704 1.32688 0.047972
        -0.46141 0.936832 -0.46781
        -0.434102 0.678579 0.83249
        1.41779 1.39444 -0.245954
        -0.840851 0.8185 0.514757
        -0.908222 2.31968 -0.623545
        0.254187 0.878764 -0.673669
        -0.558815 0.888222 -0.922709
        -0.565136 1.7194 -0.515775
        0.241808 1.31568 0.496894
        0.523399 0.749934 0.065565
        0.0581206 1.48657 1.2168
        -0.910198 1.91544 -0.720325
        0.846074 1.25294 0.704072
        0.267742 2.15851 -1.03325
        -0.765435 1.4709 -1.61926
        -0.941862 1.78794 -0.140444
        -1.72252 1.30201 0.42018
        0.502188 0.884596 -1.19458
        -1.27035 1.06536 -0.35399
        -0.719073 1.14701 0.281834
        1.03562 1.4326 -0.67187
        1.46427 1.151 -0.889878
        0.180502 1.85156 -0.0127545
        0.731752 0.492906 -0.495396
        -0.320711 1.40179 0.176597
        0.316488 0.553259 -0.508675
        -0.89058 1.36816 0.264812
        -0.64775 1.45847 0.157781
        0.049185 0.732551 -0.223751
        0.0145511 1.54663 -0.232209
        -0.783099 2.20359 0.0938433
        -0.197836 1.99581 -0.45236
        -0.578295 1.48323 -0.619398
        0.0572989 0.742479 0.770377
        0.647266 2.01498 -1.27971
        -0.966834 1.89264 -0.955491
        0.380965 1.99821 -1.19632
        0.428681 1.23211 1.09476
        0.558008 1.01649 1.65644
        0.291761 0.808679 -0.402545
        0.136321 0.103158 -0.0544355
        -0.165464 0.132151 -0.0725456
        -0.176996 1.65048 -0.224492
        -1.98733 -0.53297 0.572076
        0.714377 1.34133 -0.0647264
        -0.850443 2.36048 0.10117
        -1.94701 1.94758 -0.0609588
        -0.755806 1.74099 0.740603
        -0.156305 1.92443 0.17936
        -0.47569 1.89655 -0.114787
        0.488555 -0.164183 -0.862678
        -0.437548 -0.507948 -0.133204
        -0.46567 1.77761 1.46345
        0.479624 0.857121 -0.629349
        0.562131 2.61144 0.258346
        -0.0953985 1.27256 0.132216
        -0.738425 1.28932 -0.474576
        0.151046 2.10719 -0.454977
        0.821692 2.63304 -0.160426
        0.704734 1.99612 1.10751
        0.246366 1.44478 0.254229
        0.742575 1.52393 0.0831384
        1.26359 1.95462 0.365871
        -1.42132 1.19242 0.298471
        -1.04423 0.857558 -0.691323
        -0.338036 0.974415 -0.00475941
        -0.631485 1.02503 0.0203493
        -0.81471 1.45134 1.26942
        -0.00241441 0.531508 -0.34444
        0.500912 1.23369 -0.667338
        0.772873 2.01979 -0.301597
        0.0712759 1.24366 -0.405436
        -0.886579 1.97901 -0.41422
        -1.71949 0.700232 0.228049
        0.623314 1.3232 -0.48377
        -0.620258 0.444867 -0.734619
        -0.560631 1.56712 1.09279
        -1.36235 1.67704 -0.988103
        -0.624102 2.0854 0.605898
        0.742799 1.69407 0.635967
        -0.528954 1.90329 -0.304612
        0.218801 1.36133 0.739298
        -0.0168631 0.627294 0.638591
        -1.14571 2.47729 -0.180819
        1.7991 0.936744 1.58142
        1.27859 -0.541055 -0.31903
        1.04146 1.33008 -1.16083
        0.684407 1.69617 -0.262735
        -0.838114 1.24845 -0.140411
        -1.07088 2.74874 -0.0171637
        0.232883 1.74786 -1.26329
        -0.272483 1.49812 1.29346
        0.505651 0.807642 -0.526377
        -0.723181 -0.269467 -0.746657
        0.800581 0.474497 0.452401
        -0.245247 1.35101 -1.34882
        -0.999058 0.344345 -0.606501
        0.952877 1.30484 -0.976847
        -0.500377 -0.706873 0.392518
        -0.0168523 2.05949 0.185521
        -0.0421412 1.52156 -0.819735
        -1.09887 2.21985 0.686658
        0.614291 1.71173 1.18154
        -0.604023 0.669159 -0.27195
        0.191314 1.74785 -0.170422
        -0.679878 2.19682 0.715585
        0.600521 1.62273 -0.443006
        0.324336 3.16639 -0.145903
        1.21419 2.2592 1.06287
        1.28019 2.54654 -0.0913495
        -0.0578934 1.7215 -0.625978
        0.581081 1.88073 0.127204
        -0.885909 2.10884 -1.12621
        -1.41912 0.537356 0.0821012
        -1.20408 0.405135 -1.10778
        -0.16129 0.725375 -1.03019
        0.073501 2.41095 0.444917
        0.149418 0.551179 0.180093
        -1.52965 1.06315 -1.05658
        -1.20208 0.220085 -0.131494
        -0.642255 1.15304 0.724748
        -0.423667 1.49999 1.35564
        1.02024 2.00338 0.862936
        1.57172 0.523845 -0.682696
        0.896508 1.1675 -0.0399518
        -0.0763746 1.70823 0.384065
        -0.226856 2.16386 0.128903
        0.354516 0.0866282 -1.19023
        0.164126 0.881234 1.09535
        -0.177715 1.21 0.945263
        -0.70739 1.26694 -0.254332
        0.395679 1.26679 -0.284692
        -1.06697 2.46217 -0.217727
        1.15296 -1.15923 -0.326639
        1.29714 -1.90469 1.40619
        0.250119 -2.13536 0.239058
        1.02566 -1.61378 0.43653
        -0.688627 -1.94208 0.18589
        0.703704 -0.427673 1.27279
        1.39689 -1.35865 0.111485
        0.143396 -2.87604 -0.318416
        -0.645727 -1.47762 0.673221
        0.106985 -2.11183 0.117035
        -0.588656 -0.939033 0.971303
        -1.16824 -1.62531 0.154353
        -0.49417 -2.7168 0.634294
        1.09835 -0.806308 0.34407
        0.469091 -2.17691 0.0924061
        0.15199 -0.77781 -0.759977
        -0.00944137 -1.02922 0.322851
        -0.051799 -0.474355 -0.468776
        0.858539 0.666194 1.52744
        0.756603 -1.04491 1.41298
        -0.376602 -1.5964 -0.115503
        0.462516 -1.73957 -0.327331
        0.114384 -0.888512 -0.614856
        -0.237771 -1.82525 -0.646276
        0.415907 -0.50165 -0.162855
        1.98242 -0.994626 1.04076
        0.725243 -1.03204 0.26168
        0.857675 -1.44462 -0.447547
        0.498967 -1.30294 -0.466966
        0.507539 -0.14531 0.0818439
        -0.421759 -1.06569 0.136238
        -0.10016 -2.27424 -1.48462
        -0.854648 -2.51862 -0.883196
        0.122213 -0.644488 0.0447035
        -0.784444 -2.26499 -0.310727
        0.245982 -0.567614 0.712427
        1.37201 -1.46383 0.884413
        -0.316082 -1.48694 -0.302166
        -1.72136 -0.545601 0.665321
        -1.01434 -3.51338 0.489143
        -1.10151 -0.418517 -1.06013
        0.439618 0.0881793 0.555116
        -0.989069 -1.92662 1.94911
        -0.34555 -0.712466 1.16228
        0.649949 -0.161494 0.375545
        -0.182209 -1.35926 0.875759
        0.37733 -2.32924 -0.33708
        -0.0589097 -0.751206 -0.248656
        -0.975797 -0.59743 -0.346745
        0.31704 0.0555314 -0.384209
        0.274217 -1.32516 1.24775
        0.343494 -1.54331 -1.40425
        -0.232048 -1.26069 0.332769
        0.756681 -0.884371 0.898715
        0.764577 -2.23335 0.773825
        -0.714689 -1.32223 0.457856
        1.35543 -0.230872 -0.479649
        1.0349 -0.932001 0.478944
        1.30602 -0.82858 -0.372708
        0.143254 -0.784505 1.43865
        -0.0585423 -1.69397 -0.0263861
        0.116707 -0.954347 0.0103285
        -0.859137 -1.20346 0.587066
        0.220707 -0.0746517 -0.163651
        0.29305 -1.71382 -0.0989016
        -0.00493383 -1.76566 -0.650614
        -0.20638 -1.12503 -1.58314
        0.685956 -1.50802 -1.52865
        -0.362891 -2.09862 0.348573
        1.65234 -0.855486 0.300869
        -0.322931 -0.925379 -0.337131
        -0.686731 -2.4572 -1.7364
        -0.822111 -1.00003 -0.351175
        -0.483851 -0.96644 -0.10736
        -1.03551 -1.08685 -0.655896
        0.540206 -0.954076 -0.133378
        -0.0137393 -1.67144 -0.485226
        -0.445412 -2.19305 0.419791
        -0.876268 -1.60592 -0.0883853
        0.0795557 -1.14303 0.401259
        -1.92729 -2.0771 0.266528
        -0.842911 -0.825702 0.174241
        -0.984221 -1.04483 0.436403
        1.08305 -0.208721 0.215115
        0.200716 -2.75411 0.115721
        -1.35598 -2.05424 1.14685
        0.996774 -2.14852 -0.197505
        0.469045 -1.01371 -0.0143794
        0.146229 -0.781678 -0.252397
        -0.884051 -0.584966 0.209307
        0.195375 -1.61327 -1.34911
        0.0226636 0.440728 0.190715
        0.0634156 -2.04235 0.753285
        -0.00937761 -1.57356 0.485078
        0.370322 -1.57276 -0.0829839
        0.481136 -1.45297 0.808843
        0.294149 -1.26034 0.50585
        0.428101 -1.22028 0.997228
        -1.22302 -1.58378 0.793375
        1.47331 -1.16124 0.190048
        0.477328 -1.53634 -0.0729578