<?xml version="1.0" encoding="UTF-8" standalone="no" ?>
<VTKFile byte_order="LittleEndian" type="UnstructuredGrid" version="0.1">
  <UnstructuredGrid>
    <Piece NumberOfCells="0" NumberOfPoints="1764">
      <PointData>
        <DataArray Name="velocities" NumberOfComponents="3" format="ascii" type="Float32">
        -1.20506 -3.37177 0.192892
        -0.0485994 -2.71505 0.387616
        0.292993 -2.88989 0.026179
        0.444718 -2.15476 0.143586
        -0.314993 -1.87842 -0.0942737
        0.268811 -2.60162 -0.271437
        -0.139756 -1.18566 -0.763028
        0.229777 -3.21156 0.467127
        -0.91215 -2.62778 0.560225
        -1.11331 -1.97336 0.0646103
        -0.964951 -2.72637 -0.162233
        -1.32748 -2.83461 -0.141233
        -1.41128 -2.05352 -0.0675839
        -0.896315 -2.87666 -0.11287
        -1.28619 -2.14338 -0.106683
        -0.866267 -2.1734 -0.113043
        -1.42203 -2.93741 0.274234
        -1.58989 -2.15733 -0.145416
        -1.07109 -3.11315 0.277759
        -1.18196 -2.22102 -0.302621
        -0.611885 -3.16317 0.238699
        -0.660674 -2.26473 -0.374342
        -0.372771 -2.18244 -0.105908
        -0.393953 -2.87758 -0.105654
        0.147805 -2.18307 -0.101009
        0.144473 -2.87346 -0.108907
        0.674263 -2.16809 -0.107011
        0.684414 -2.87413 -0.104984
        -0.112836 -2.29791 -0.397599
        0.421521 -2.28833 -0.39074
        0.415304 -3.16925 0.215186
        -0.100742 -3.17579 0.209321
        1.1623 -2.14463 -0.11423
        -0.275747 -2.38794 -0.147838
        1.4227 -2.10556 -0.128069
        1.18177 -2.8658 -0.107959
        1.48992 -2.83975 -0.109136
        0.0342458 -3.44386 -0.13675
        0.894393 -3.13552 0.255118
        0.944332 -2.24671 -0.348642
        1.30475 -2.21168 -0.233235
        -0.0602309 -2.20519 -0.0221761
        1.12984 -3.03242 0.274427
        -1.53258 -2.91889 0.216176
        -1.1278 -3.49966 -0.142691
        -2.07623 -2.65436 -0.00261867
        0.224223 -1.83681 -0.0677523
        0.438777 -2.26879 0.240816
        0.508439 -2.74726 0.164334
        -0.188941 -1.28254 0.420427
        0.669512 -2.1878 0.835551
        0.754229 -3.77758 -0.101482
        0.857467 -1.85294 -0.122847
        -0.150714 -3.54852 -1.2391
        -1.30874 -1.83472 0.711757
        -0.0746004 -0.00200633 0.542213
        -0.405003 -2.28551 -0.79954
        -0.99558 -1.48627 0.963764
        -1.01789 -1.46329 -0.650491
        -0.687766 -1.4004 -0.534697
        -0.850065 -1.56896 0.426584
        0.080157 -2.48603 0.0606766
        0.620119 0.484036 0.857553
        -0.493913 -0.628264 -0.42974
        -0.26146 -3.94076 0.478433
        -0.353721 -2.85879 0.788564
        -0.796219 -0.633468 -0.619322
        0.430394 -4.19306 0.497208
        1.90665 -2.63737 0.549272
        -0.869954 0.70093 -0.728294
        2.96547 0.290312 -0.274758
        -0.874535 -1.25014 0.603863
        1.18015 -1.15336 -0.00675425
        -0.458973 -1.87791 -1.35063
        -0.413356 -0.541809 -0.395497
        -1.73507 -1.09427 -1.3085
        -0.374815 -0.188463 -3.15992
        -0.566993 0.0612228 0.18963
        -2.15146 0.0012057 -0.82677
        -1.18201 -0.67069 0.729061
        1.05714 -2.84321 0.289834
        -1.67983 -0.335067 -0.0412705
        -0.659769 -0.559834 0.757011
        1.27197 -0.42101 0.655669
        -0.943196 -0.409696 0.61968
        -0.621708 -0.616371 -0.0946423
        -0.0354663 -1.91794 1.09378
        0.870811 -0.604968 0.480308
        -1.23613 -1.68554 0.850448
        -0.932406 -1.69132 0.803244
        -0.952873 -0.553907 0.438804
        -0.951634 -1.97372 -0.369891
        0.116353 -1.94617 0.681467
        -0.534653 -2.44005 0.142167
        -1.11924 -1.69929 0.442027
        -1.16954 -2.38128 0.112805
        -0.92682 -1.56417 0.55682
        1.30239 -0.572126 -0.159715
        -1.30889 -1.85878 -0.418939
        -0.210488 -1.61585 -0.219869
        -1.0388 -0.749288 -0.647317
        -0.935963 0.483094 -0.283327
        1.24019 -0.653925 -0.702504
        0.443141 -3.64962 0.332921
        -0.934343 -1.84863 -0.646612
        -1.17132 -3.62192 0.259165
        -0.715802 0.522772 -0.309017
        -1.19041 -1.74613 -0.696089
        0.506959 -1.5566 -0.744854
        0.634432 0.578929 -0.262489
        -0.684516 -0.536945 0.382914
        -0.675079 -0.396539 0.609007
        -0.694562 -3.5868 0.230409
        -0.672652 -0.806081 -0.604346
        -0.673672 -2.39569 0.138502
        -0.695918 -0.602175 0.0139213
        0.678641 0.479124 -0.252354
        0.137278 0.469495 -0.233592
        -0.416898 0.47196 -0.242442
        0.436976 -0.607316 0.0307131
        -0.404268 -1.55668 0.508358
        0.140065 -1.92203 -0.631513
        0.145314 -2.05303 -0.340894
        -0.141546 -0.607211 0.0497578
        0.144094 -1.55384 0.501523
        -0.409154 -1.90979 -0.63233
        -0.40413 -1.67865 0.789978
        -0.142412 -2.4098 0.148229
        0.41295 -3.57138 0.2328
        -0.412807 -2.03763 -0.345185
        0.401913 -0.521616 0.370138
        0.403151 -0.381914 0.607849
        0.418165 -0.827315 -0.591557
        -0.146201 -3.56674 0.231078
        0.142091 -1.67343 0.788508
        0.690264 -2.00977 -0.352038
        0.400954 -2.40168 0.140548
        -0.143877 -0.517124 0.36617
        0.677516 -1.88085 -0.638419
        0.685896 -1.56125 0.53159
        -0.134985 -0.835337 -0.583533
        -0.141524 -0.376049 0.604795
        0.678189 -1.69012 0.791491
        0.981778 -0.605579 -0.0392179
        1.0055 -0.537633 -0.0457866
        -0.94249 -0.644049 0.616014
        0.898467 -0.688279 -0.658831
        1.05492 0.49458 -0.316503
        1.37046 -3.64109 0.262736
        -0.697022 -0.442123 -0.723993
        0.945053 -0.783848 -0.623528
        -0.807922 -0.42206 0.772436
        -0.659915 -1.12704 -0.976038
        0.94534 -2.37935 0.118076
        -0.667995 -0.411326 0.0611859
        -0.516746 0.543786 -0.393786
        1.27075 -1.64839 -0.72991
        0.564429 -0.409338 0.648271
        0.697961 0.863505 -0.635352
        0.557171 -2.00621 0.947378
        0.962289 -1.54905 0.615089
        1.17644 -1.79617 -0.664921
        0.865538 -0.549256 0.474376
        1.05681 -1.92151 -0.396035
        -1.10025 -1.54535 0.668997
        1.09759 -1.83334 0.741373
        -1.39322 -1.67145 0.870942
        1.35591 -2.3639 0.109177
        1.0689 -1.53405 -0.297445
        0.488789 -3.80874 0.118526
        0.966953 -1.68932 0.821113
        -0.834325 -1.86121 -0.489162
        0.376997 -2.64445 0.390345
        0.916629 -0.539707 0.406113
        0.956951 -3.59737 0.243981
        0.913703 -0.399733 0.611011
        0.86614 -0.602241 -0.644737
        -2.43128 -1.89942 0.876246
        1.82127 0.0564955 -0.794041
        -1.39649 -0.723028 -1.13135
        1.33441 -4.041 0.454925
        -0.355026 0.386867 -0.817426
        0.000516542 -2.56791 0.470094
        1.18387 -0.937625 -0.62462
        1.47293 -0.478898 0.832095
        1.11313 -2.54162 -0.978006
        1.24584 0.445157 -0.680992
        1.55659 -2.64423 -0.191316
        1.55874 -0.459986 0.75415
        0.0166204 -1.23495 0.989256
        -1.03808 0.555219 -0.175818
        -0.871273 -2.42902 0.912467
        -0.199445 -1.99586 0.302007
        0.87533 -1.82639 0.0945224
        0.740909 -2.49294 0.278711
        0.827225 -0.69065 -1.03279
        -2.53394 -2.82816 -1.2453
        -0.873512 -3.17007 -0.368669
        3.22186 -2.34142 -0.368894
        1.52262 -2.32973 -0.207004
        2.54435 -0.131374 0.567379
        0.986267 1.36657 0.874719
        0.435993 1.12197 -0.650775
        0.758346 -1.23156 -0.0279619
        -0.626886 -1.53008 1.40966
        0.0915788 -1.40854 1.39531
        -0.317709 -0.519827 -0.242461
        1.49941 2.02841 1.10731
        0.30235 2.40551 -0.00572102
        -1.63783 3.85024 -0.418201
        -0.959509 3.10832 -0.781272
        -0.776619 1.25484 -0.0901787
        -0.868628 2.45994 -0.0966736
        -1.20534 2.30875 -1.06
        0.289887 1.82725 1.35498
        -0.171179 2.9633 0.726095
        -0.311944 2.43885 -0.344998
        -0.86915 1.88699 0.54984
        -1.76139 2.09913 0.788061
        -1.73901 0.201253 0.42167
        -1.12302 1.61676 -0.784605
        -0.179741 0.794306 0.664249
        -1.52497 1.48234 -0.346451
        0.370687 1.10886 0.58839
        -0.959487 1.21029 1.00616
        0.23028 1.20699 -0.0129998
        -1.11318 0.960077 0.926031
        -0.124084 2.3074 -0.872672
        -0.510981 2.03491 -0.606657
        0.491776 2.22791 0.777874
        2.89984 -1.00998 0.998361
        -1.36235 0.782398 -0.653695
        -1.13616 2.12151 0.64565
        -0.668943 1.74791 -0.821891
        1.03303 0.604283 0.507671
        0.758204 0.646588 0.817846
        -1.08607 0.833516 0.58955
        -0.019159 3.70042 -0.325673
        -1.06977 0.774432 0.462811
        -1.07728 1.57308 -0.375912
        -1.03906 2.90201 -0.564828
        -0.949061 0.77817 0.40203
        -1.20561 3.49063 -0.328162
        0.144317 1.92449 -0.847932
        -1.14636 1.7596 0.987075
        -0.946471 0.850645 0.56351
        -0.267911 1.7599 1.02289
        -0.673344 1.56485 -0.325145
        -1.1292 1.82562 -0.822719
        -0.67776 2.21182 0.617227
        -0.671537 1.79839 0.993678
        -0.931945 3.35757 -0.336545
        -1.43444 2.69999 -0.474768
        -0.293543 2.0074 0.727221
        0.364581 1.58407 -0.432167
        -0.979266 2.63385 -0.420727
        -0.921456 0.501759 -0.56028
        -0.692053 0.582391 -0.572429
        0.564886 0.7304 -0.629759
        0.412465 1.56162 -0.319624
        -0.13589 1.55755 -0.316839
        -0.141172 1.83228 1.00451
        0.662149 3.31483 -0.341099
        -0.150061 2.26148 0.610754
        0.683209 0.858846 0.565014
        0.401042 1.82313 0.998513
        0.133332 3.27656 -0.341277
        0.380834 2.24581 0.612645
        -0.424795 2.6059 -0.396873
        0.142791 2.60394 -0.393824
        -0.408224 3.2877 -0.340612
        -0.412061 0.78962 0.372036
        0.146051 0.794009 0.368465
        0.696423 0.779827 0.381458
        0.412678 1.71696 -0.820791
        -0.41265 0.872911 0.565801
        -0.133746 1.70278 -0.820346
        0.695911 2.61629 -0.404637
        0.141853 0.880634 0.565266
        0.662927 0.479796 -0.554526
        0.13422 0.443911 -0.543281
        -0.409132 0.452533 -0.546909
        -0.0355502 1.91444 -0.252306
        -0.567892 3.11049 -0.489309
        1.19703 1.63348 -0.341231
        -0.0447565 2.22646 -1.05851
        1.29482 1.77955 0.982134
        1.05214 2.07234 0.664018
        0.935117 1.78774 0.983868
        0.884681 2.17471 0.628726
        -0.212433 1.6602 1.17506
        0.943596 1.57159 -0.344769
        0.943839 1.78414 -0.821527
        -0.317485 1.96259 0.684084
        0.724765 0.947455 0.747746
        1.06744 3.56354 -0.3457
        0.899419 0.780581 0.439464
        -1.2626 0.788016 0.467005
        1.11481 0.735199 0.497923
        1.19226 1.88769 -0.828663
        -0.0185429 2.76592 -0.52062
        1.03631 0.839484 0.571112
        -1.1747 3.97074 -0.567381
        1.16476 3.42049 -0.328907
        -1.04884 0.857262 0.548151
        1.17336 2.67206 -0.446747
        1.06459 0.546173 -0.569957
        -0.49655 0.657447 -0.571291
        0.53908 0.767341 -0.540772
        1.28006 3.68555 0.298888
        0.547541 1.55872 -1.33774
        1.13798 2.06365 -1.02508
        0.184465 2.93813 -0.141369
        -1.18214 2.5321 -2.00596
        0.668324 1.9966 -1.04409
        -2.28732 -0.0240279 1.82195
        0.700483 0.948602 -0.546145
        -0.808081 1.48105 0.761155
        -3.15127 0.940439 2.2071
        1.82381 -1.03002 -0.62232
        0.921204 1.86618 1.52768
        2.24566 1.09959 -0.478757
        -0.0684928 1.10218 1.12453
        1.07353 2.33725 0.680423
        -0.185039 2.70146 0.26313
        0.865357 1.95846 0.716127
        -0.342078 2.31078 1.60856
        0.642288 1.73733 -0.825211
        -0.947974 2.73316 0.449565
        -1.08778 1.56179 -0.315342
        1.06324 1.7314 -0.335514
        1.83048 -0.126211 -0.969319
        -0.0938403 1.34973 0.852266
        0.499261 2.08483 -0.386216
        1.78739 0.261834 -0.596528
        -0.970518 2.83758 -0.0814545
        0.606865 3.15238 -0.588744
        0.459369 2.90428 0.335015
        0.884656 2.88311 0.828846
        0.22734 2.76237 -0.382644
        -0.356063 3.15619 0.785269
        -0.671511 1.87174 -0.0323905
        0.930756 2.03762 0.00603074
        -1.0513 1.53677 -0.522106
        -1.34827 2.61981 0.506914
        -1.47783 2.53962 -0.426925
        -1.18892 2.63656 -0.453182
        -1.12486 2.62273 0.413279
        -0.685004 2.6742 -0.46176
        -0.66584 2.61503 0.375214
        -0.900205 2.21716 -0.242215
        0.823281 2.33433 0.0629979
        -1.22272 2.37731 -0.0182117
        0.569834 1.95231 -0.373147
        -0.906343 2.45581 -0.0391742
        -1.15242 2.04589 -0.304693
        -0.145186 2.68074 -0.45173
        0.392974 2.68014 -0.456031
        -0.144887 2.60508 0.364069
        0.379542 2.61516 0.36649
        -0.407284 2.51497 -0.0319783
        0.118039 2.52794 -0.0318069
        -0.408421 2.33028 -0.206182
        0.123379 2.35325 -0.195851
        0.645059 2.4864 -0.0417613
        0.649418 2.2896 -0.222903
        0.857868 2.63218 0.387008
        0.905005 2.66942 -0.461772
        1.26362 2.60222 -0.418437
        -0.667492 2.55252 -0.290752
        1.25774 2.45689 0.579593
        1.25249 2.60123 0.448865
        1.12999 2.13828 -0.276731
        1.12598 2.41421 -0.0350392
        1.47781 1.92833 -0.303841
        1.44208 2.29089 -0.0156857
        0.364726 1.87091 -0.192953
        0.772684 1.54026 -0.0217772
        1.60727 2.92543 0.664314
        1.23186 2.59979 -0.467817
        0.644299 2.47038 -0.49621
        0.0165992 2.50296 0.834561
        0.0648211 2.31109 -0.345431
        -1.57645 1.34484 -0.561988
        0.151364 3.04323 0.239641
        -0.377346 2.13875 -0.888239
        -1.59953 -2.50832 -0.204396
        0.305121 -2.00799 -0.398801
        -1.77109 -2.34445 -0.407535
        0.198036 -1.8167 -0.164229
        -0.59047 -2.18094 -0.273242
        -0.00160046 -2.288 -0.354545
        -1.35893 -2.12264 -0.255329
        -0.806617 -2.01333 -0.410213
        -1.30239 -2.07626 -0.463759
        -0.897616 -2.07577 -0.508263
        -0.894362 -1.96369 -0.0750252
        -1.26771 -2.21936 0.161657
        -0.864635 -2.33012 0.274401
        -1.12165 -2.5771 -0.29927
        -1.51927 -2.39324 -0.358535
        -0.630408 -2.70442 -0.23345
        -0.396296 -2.0701 -0.524439
        -0.380645 -2.36096 0.294195
        0.152534 -2.36081 0.284258
        0.144734 -2.07134 -0.525035
        0.683198 -2.33847 0.280826
        0.684171 -2.06682 -0.517768
        -0.103223 -2.76262 -0.211674
        0.419493 -2.74277 -0.218393
        -0.139899 -2.60454 -0.274969
        0.766313 -2.21943 -0.475754
        1.15637 -2.27837 0.234307
        1.51533 -2.05828 -0.439592
        1.44725 -2.16496 0.157671
        0.489525 -2.50044 0.483837
        1.17289 -2.07322 -0.488205
        0.915571 -2.64505 -0.261502
        1.27193 -2.49001 -0.334493
        0.258879 -2.348 -0.36071
        -0.241875 -1.11864 -0.502207
        -1.23005 -2.66255 -0.402484
        0.194819 -0.89311 -0.176602
        -1.16059 -2.18645 -0.542591
        0.255429 -2.35465 -0.397484
        0.912354 -1.57119 -0.306886
        0.226374 -2.86052 -0.869218
        -0.860024 -0.35088 -0.342089
        -1.05817 -3.35671 0.331198
        -0.272231 -0.0868988 1.04743
        -0.689765 -2.17724 0.487072
        -1.66745 -0.558229 0.116775
        0.189018 -2.35451 -0.461235
        -1.85622 -1.63643 0.498361
        2.47587 -0.486904 -0.0974611
        -0.250473 -2.9887 -0.22223
        -0.646161 -0.6257 0.171694
        2.7619 -0.236461 0.594658
        2.24722 -2.16048 -0.820295
        -1.96862 -0.214769 -0.415318
        -1.56135 -2.06758 -0.0867488
        -0.119178 0.343119 -0.663523
        -1.02687 -1.8392 -0.367518
        -0.272074 -1.55532 -0.275605
        -1.00167 -1.9204 0.403349
        0.603006 -3.73578 0.472878
        -0.786718 -0.355286 -0.558629
        0.259235 -2.8473 -0.31933
        -1.43056 -0.871917 0.261387
        -0.758991 -1.04685 0.285468
        -0.744701 -3.26969 0.331079
        -1.1583 -3.21863 0.27468
        1.17887 -0.851117 0.27032
        0.369191 -0.415852 -0.635158
        -0.684266 -3.14243 0.203454
        -1.04811 -0.308724 -0.629205
        -0.698771 -1.09049 0.316593
        0.115797 -2.66974 -0.311551
        0.387253 0.538534 0.765318
        -1.14733 -2.62561 -0.292103
        -0.933138 -2.32455 0.463237
        -1.29983 -2.16436 0.442072
        -0.142435 -0.768817 -0.350119
        -1.09344 -0.463658 -0.174607
        0.719856 -2.3793 -0.395843
        -0.370317 -1.8388 0.584866
        0.320923 -1.63293 -0.47616
        -0.254527 -1.96245 -0.387554
        -0.909938 -1.796 -0.376292
        -1.15009 -1.46635 -0.497639
        -0.933586 -1.384 -0.501958
        -0.684265 -2.60818 -0.279616
        -0.670296 -0.384605 -0.217145
        -0.678752 -0.281522 -0.613165
        0.407425 -0.275886 -0.608212
        0.679831 -1.75776 -0.391117
        -0.139721 -0.273489 -0.606321
        0.688305 -2.37046 0.466285
        -0.142854 -3.11177 0.18238
        -0.410854 -1.35341 -0.490371
        -0.14419 -1.11069 0.327672
        0.40269 -0.359739 -0.227498
        -0.408358 -1.7318 -0.400295
        -0.402505 -2.40411 0.464858
        0.680927 -1.36475 -0.495484
        0.140032 -1.34764 -0.488627
        0.139737 -1.71839 -0.403905
        0.146526 -2.4193 0.463289
        0.415872 -2.60351 -0.276937
        0.427655 -1.10481 0.322678
        0.414975 -3.12129 0.190862
        -0.13873 -0.349929 -0.23239
        0.962752 -1.07141 0.300541
        0.945127 -3.17631 0.237937
        0.718029 -1.78976 0.714145
        0.890309 0.237492 0.377984
        -1.04533 -0.495016 -0.120032
        -0.577789 -0.736752 0.226868
        -0.525753 -0.274462 -0.652639
        0.417411 -1.01423 0.242626
        1.10517 -2.25874 0.459934
        -0.132403 -3.64326 0.282622
        1.15615 -1.84148 -0.349355
        0.344577 -0.744874 -0.235135
        0.0952552 -0.333547 -0.635784
        0.670766 -2.09223 -0.422341
        -0.248971 -2.06816 0.427614
        1.39175 -2.62914 -0.300187
        0.264822 -2.40668 -0.37865
        1.09441 -1.40642 -0.508704
        0.61234 -1.63821 -0.46373
        1.25137 -3.27109 0.301382
        0.924097 -2.80419 -0.292591
        -0.188015 -1.5032 -0.525218
        0.904475 -0.290125 -0.621952
        0.83394 -0.410999 -0.193631
        0.952847 -2.61168 -0.284927
        2.69008 1.89267 -1.52798
        0.565858 -1.54084 -0.0112825
        -0.386263 -2.2547 -0.331548
        -2.06874 2.61749 0.950284
        1.39071 -2.7156 -0.154104
        2.57897 1.52354 0.525677
        1.2806 -2.72167 0.297499
        -0.499178 0.405374 0.374472
        1.07121 -0.943578 -0.657126
        1.57477 -1.94916 0.259426
        0.673356 -3.26286 -0.272352
        1.78121 -1.22322 0.401257
        -0.716316 -0.130623 -1.04347
        -1.42618 -2.65799 0.220598
        1.61953 -1.77024 -0.199752
        0.480035 -1.45719 -1.21779
        0.219536 0.336461 -0.538991
        0.0987832 -2.39383 1.30962
        1.64746 -0.963667 -0.427647
        1.01068 -3.77797 0.517307
        -2.42019 2.62149 -0.125239
        -1.08535 -2.96157 0.804257
        1.85293 -0.85311 0.318114
        -1.01252 2.1837 -0.795142
        -1.66195 1.28609 -0.403198
        -2.04427 1.15465 -0.269471
        -0.433515 2.89582 -0.476735
        1.72177 2.4886 0.232311
        -0.662324 3.2629 0.153427
        0.0152425 -0.445984 -0.0287759
        0.510649 1.99384 -0.239908
        -1.90559 1.65676 0.325316
        -1.55904 2.36261 -0.299258
        0.0628438 3.95186 -0.249164
        -0.464571 2.1209 0.482161
        0.361082 2.08016 -0.135492
        -1.66578 2.58319 -0.381466
        -0.611186 2.22291 0.39847
        -0.579079 1.65325 -0.594942
        -1.03944 2.07355 1.2464
        -0.90622 1.53735 -0.368261
        -1.77834 0.949634 0.495348
        -0.706596 1.88706 0.374699
        -0.68888 1.89121 -0.447455
        -0.193531 1.96065 -0.426308
        -0.684734 2.15485 -0.456689
        -1.34248 2.8747 0.337101
        0.57943 0.752166 -0.544594
        -0.954793 2.85991 0.365941
        -0.449438 0.919589 -0.56147
        -0.454249 3.27225 0.615897
        0.309466 1.74032 -0.447021
        -1.1365 2.05733 -0.461737
        -0.93388 0.956276 -0.553685
        -1.07838 1.82687 -0.449152
        -0.17445 0.327366 -0.336915
        0.615126 0.711206 -0.25517
        -0.905444 0.760436 -0.320111
        -1.12496 1.91878 0.374811
        0.363684 2.22134 0.587691
        -0.941491 0.311434 0.711908
        0.0345429 0.372277 0.639537
        0.139759 2.8638 0.385441
        -0.41834 2.86061 0.381262
        0.691818 0.784041 -0.333808
        0.683362 2.86552 0.380232
        0.400372 2.19094 -0.449625
        -0.41493 0.979245 -0.548259
        0.142567 0.813295 -0.342577
        0.425114 1.88074 0.377671
        -0.146045 1.87727 0.379603
        0.139733 0.985954 -0.546723
        -0.420981 0.803859 -0.338779
        -0.146036 2.20637 -0.445899
        -0.147087 1.92196 -0.449174
        0.676279 0.969954 -0.549551
        0.404543 1.91124 -0.448787
        0.704587 0.301058 0.736393
        0.144925 0.287473 0.749759
        -0.425573 0.290447 0.74358
        0.211815 2.90147 0.334169
        -0.383008 3.14401 0.479014
        1.00002 2.00637 0.380556
        0.938317 1.86615 -0.44632
        0.962742 1.89652 0.367144
        -0.648381 2.44227 0.741275
        0.920841 2.11525 -0.462976
        -0.0458543 1.69968 -0.571061
        1.15347 2.86909 0.352943
        1.20811 1.99341 -0.461159
        1.46346 0.493829 -0.353256
        0.741418 0.941293 -0.559949
        -0.951403 0.872359 -0.561837
        1.31584 1.77364 -0.448625
        0.357206 1.60417 -0.344102
        1.44553 0.769112 -0.478893
        -0.834788 0.631099 -0.260451
        0.939288 0.73195 -0.297988
        1.03224 0.355331 0.715369
        -0.725894 0.749592 0.918462
        -1.25416 1.88409 0.910359
        -0.543487 2.02105 -0.156168
        0.982374 3.0549 0.126761
        1.66036 1.05168 0.248956
        1.16098 1.88216 0.0185792
        -2.63292 0.337557 -0.082065
        0.927628 -2.04082 0.211858
        0.457636 3.26325 0.526043
        1.08054 2.87925 0.417571
        0.175624 2.00732 -0.765026
        0.688543 1.97313 -0.391696
        0.276376 2.22717 0.350858
        0.934315 1.60358 -0.457632
        0.651762 1.16947 0.798265
        0.0524536 2.13788 0.108839
        -1.00837 2.59655 -0.0935411
        1.06317 1.91624 -0.460505
        1.41125 1.40003 -0.424984
        -0.0586667 1.2521 0.265916
        1.92034 -0.264972 0.657427
        -0.000174019 0.831112 -0.279412
        1.24765 2.50584 -0.504369
        -0.697296 2.10707 -0.37471
        -0.720086 1.34874 -0.220988
        -0.251278 2.33426 -0.45529
        -0.428995 2.28934 0.576752
        -1.52628 2.01761 -0.344818
        -1.18612 2.1466 -0.243751
        -0.694109 2.22461 -0.16751
        -1.30736 2.67986 0.427127
        -0.934031 2.69472 0.288627
        -0.080436 2.6413 0.612155
        -0.202977 2.35834 -0.352663
        -1.275 2.42659 -0.412846
        -0.920783 2.48981 -0.462336
        0.39009 2.25346 -0.142445
        -0.152612 2.25795 -0.146941
        -0.412699 2.72851 0.220963
        0.109382 2.73284 0.206105
        0.652639 2.70467 0.240029
        -0.422409 2.53536 -0.488936
        0.107645 2.54608 -0.49465
        0.638951 2.51428 -0.482647
        0.890851 2.20776 -0.185569
        0.744628 1.93726 -0.410407
        1.2993 2.1052 -0.287311
        1.17421 2.68101 0.342609
        1.1301 2.46437 -0.442594
        1.56829 2.66271 0.487401
        1.5213 2.36859 -0.374628
        1.1899 2.44047 0.642085
        1.24301 2.05346 -0.278573
        -0.183298 1.84107 -0.45303
        1.61302 2.26485 -0.565686
        -0.668989 1.63061 0.00897554
        -0.647761 2.69484 0.225869
        -0.12247 2.20128 -0.412284
        -1.46085 -2.62706 -0.0128144
        0.306354 -2.20059 -0.0624869
        -1.5406 -2.60015 0.0534071
        0.307996 -2.15349 0.206177
        0.327046 -2.08702 0.131404
        -0.755199 -2.13329 0.150667
        -0.761784 -2.13009 -0.330033
        0.274411 -2.11169 -0.324027
        -1.04755 -2.00825 0.0701929
        -1.10885 -2.00477 -0.186384
        -0.962579 -2.22422 -0.0679169
        -1.301 -2.30461 -0.0806575
        -0.891198 -2.30776 -0.0958287
        -0.915909 -2.16501 0.206025
        -1.29907 -2.23796 0.250831
        -0.89128 -2.23559 0.290276
        -1.52154 -2.33283 0.0942313
        -1.13688 -2.45741 0.111619
        -1.13395 -2.44662 -0.30024
        -1.51924 -2.33276 -0.254382
        -0.643461 -2.5345 0.118604
        -0.642476 -2.5117 -0.326208
        -1.15395 -2.76769 0.142873
        -0.691227 -2.72531 0.143382
        -0.693061 -2.77007 -0.038821
        0.210803 -2.90286 -0.0384358
        -1.15807 -2.82351 -0.0379514
        -0.392348 -2.2949 -0.102202
        -0.392882 -2.22276 0.308122
        0.144561 -2.22099 0.309818
        0.681238 -2.22249 0.301409
        0.14505 -2.29314 -0.102797
        0.68171 -2.29507 -0.099962
        -0.109863 -2.57877 0.119912
        0.422166 -2.56276 0.119088
        -0.109369 -2.54995 -0.332799
        0.422708 -2.53656 -0.329404
        0.418683 -2.75756 -0.0389471
        -0.142357 -2.75187 -0.0393636
        0.417621 -2.71579 0.142032
        -0.141933 -2.71252 0.143106
        1.50371 -2.22524 0.236453
        0.701139 -2.4384 0.277657
        0.628341 -2.52451 -0.0947736
        1.50249 -2.28999 -0.0761009
        1.16834 -2.30543 -0.0893891
        1.16762 -2.23556 0.273295
        0.921822 -2.47988 -0.313558
        0.922733 -2.49654 0.114991
        -0.0666771 -2.32908 0.0892983
        1.26725 -2.4062 0.105258
        0.0328811 -2.32757 -0.244056
        1.2677 -2.4011 -0.273125
        1.42014 -2.84356 -0.0389224
        0.96684 -2.78968 -0.0382857
        1.41461 -2.78127 0.146515
        0.963466 -2.73943 0.142613
        -1.32685 -2.8407 0.240931
        0.245003 -0.971148 0.0948002
        -1.39799 -2.94166 -0.0813474
        0.273806 -1.01302 -0.0399139
        0.540023 -1.33397 0.0270165
        0.604523 -1.30316 -0.106565
        0.378321 -2.20746 0.112056
        0.32369 -2.25357 -0.313007
        0.701049 -2.48616 0.0380564
        0.621055 -2.59193 -0.409161
        -0.156542 0.470116 -0.00281323
        -1.99728 -0.46335 -0.158559
        -0.869376 -1.66605 0.118022
        -0.904016 -1.63243 -0.336235
        -0.462369 -1.22945 -0.169713
        -0.593292 -1.07447 0.502661
        2.54468 -0.770944 -0.0276014
        -0.886173 -1.7181 -0.074623
        -1.1594 -0.582245 1.02763
        0.0077464 -3.27796 0.0860473
        -0.476891 0.535633 -0.0545309
        -1.09375 -0.504497 -0.579169
        -1.90998 -0.605207 0.39532
        0.0673666 -3.42658 -0.00552063
        2.56606 -0.758793 0.101969
        -0.962537 -1.7772 0.257166
        -0.163156 -2.14175 -0.0630581
        -0.807129 -1.29647 -0.467543
        2.44196 -1.90047 -0.0100637
        -1.49622 -0.772617 -0.291088
        -0.223721 -1.75575 0.170955
        -0.919404 -1.18816 0.219122
        2.68035 -2.15321 0.0319352
        -0.838945 -0.432359 0.298906
        -0.847808 -0.500181 -0.0835141
        0.216156 -3.05219 0.157403
        -1.52601 -0.749681 0.090788
        0.206926 -3.13527 -0.0397223
        0.818157 -0.820792 -0.348894
        -0.74662 -0.882364 -0.35057
        -1.30141 -1.90218 0.105018
        -0.938085 -1.93093 -0.318113
        -0.210828 -1.743 0.0960212
        -0.939565 -1.98301 0.109003
        -0.931946 -1.44796 0.348874
        -1.30849 -1.84669 -0.30924
        -0.3025 -1.68434 -0.271996
        -0.676023 -0.313459 -0.130761
        0.19724 -0.504213 -0.133091
        -1.05337 -0.366788 -0.126314
        0.295429 0.343123 -0.401708
        0.162845 0.337864 -0.40636
        -0.751852 -0.849808 0.110293
        0.759878 -0.780471 0.109203
        -1.05226 -0.322345 0.408609
        0.436285 -1.83115 -0.104358
        -1.061 -1.57545 -0.103484
        -0.930014 -1.49666 -0.104176
        -0.678247 -0.915182 -0.359064
        0.214695 -2.83458 0.150658
        -0.676773 -0.273094 0.421884
        0.576413 0.387861 0.118794
        -0.0974624 0.417331 0.120974
        -0.679522 -0.88677 0.113234
        -1.1132 -1.52659 0.345593
        0.363535 -1.74146 0.355452
        0.220055 -0.433171 0.437188
        0.40634 -0.294603 -0.132507
        -0.139325 -0.286812 -0.133402
        -0.138716 -0.252372 0.427842
        -0.410433 -1.40176 0.356421
        -0.140312 -0.933332 -0.363765
        -0.40443 -1.97847 -0.326026
        0.679274 -1.42118 0.353066
        -0.140707 -0.908837 0.115346
        0.147258 -1.98981 -0.327471
        0.417681 -0.900169 0.114489
        0.4166 -0.925758 -0.362449
        -0.405033 -2.03579 0.111656
        0.139369 -1.39302 0.357073
        0.147107 -2.04906 0.111679
        0.688897 -1.95689 -0.323244
        0.689401 -2.01117 0.1102
        0.406051 -0.258674 0.425974
        -0.409516 -1.44894 -0.108106
        0.139385 -1.43853 -0.10875
        0.678327 -1.46982 -0.10659
        1.13249 -3.04061 -0.053191
        -0.0948314 -1.62126 -0.110812
        0.864405 -0.333488 -0.127658
        1.05226 0.322345 -0.408609
        0.915526 -0.867218 0.110832
        1.00097 -1.72848 0.102544
        -0.19724 0.504213 0.133091
        0.686838 -1.79641 0.337323
        -0.162845 -0.337864 0.40636
        -0.315506 -0.682638 -0.335471
        -0.065437 -0.829962 0.10042
        0.924033 -0.897601 -0.353192
        1.06641 -1.89145 -0.316988
        -0.220055 0.433171 -0.437188
        -0.576413 -0.387861 -0.118794
        -0.329866 -1.80738 -0.314458
        0.970821 -1.66015 -0.301474
        1.0958 -2.94393 0.200879
        -0.295429 -0.343123 0.401708
        -0.342875 -1.85774 0.105376