<?xml version="1.0" encoding="UTF-8" standalone="no" ?>
<VTKFile byte_order="LittleEndian" type="UnstructuredGrid" version="0.1">
  <UnstructuredGrid>
    <Piece NumberOfCells="0" NumberOfPoints="1764">
      <PointData>
        <DataArray Name="velocities" NumberOfComponents="3" format="ascii" type="Float32">
        -0.641275 -0.310347 1.12617
        -0.272015 -0.280933 0.441927
        0.13859 -1.61238 -0.245814
        -0.8656 -0.805063 -0.789957
        1.03888 -1.84293 -0.614465
        0.672892 -2.11479 -0.562685
        0.00433446 -1.0977 -0.674784
        0.23343 -1.34646 -0.587346
        1.93618 0.062077 0.942326
        -0.369762 -1.57967 -0.969021
        -0.813239 -2.97583 0.200151
        0.00946843 -0.997192 -0.137885
        -1.13024 -2.90482 -0.706235
        -0.729117 -1.26534 0.883943
        0.170788 -0.7716 -0.850896
        -0.915045 -1.76368 -0.849192
        0.323212 -1.22253 0.494993
        0.0387955 -1.70104 -0.239841
        1.14688 -1.75913 0.992225
        1.46502 -2.06534 0.0245417
        1.11174 -0.778738 -0.000475462
        0.940743 -0.982725 -0.765872
        -1.89994 -1.23246 0.304379
        0.300037 -1.66672 -0.579866
        0.0541456 -1.25538 -0.555664
        0.427899 -0.431627 0.447531
        1.03461 -1.88907 -1.17654
        -0.953514 -1.20282 -1.46627
        -0.551561 -0.117052 -0.210709
        -0.285412 -1.98398 -0.710758
        -1.04809 -1.38137 0.727822
        0.405219 -2.41875 -0.366245
        0.177211 -0.642196 -1.18971
        -1.11862 -0.311122 -0.102632
        0.68938 -1.75315 -0.467528
        0.188552 -1.18366 -0.475616
        0.660656 -1.56892 0.273028
        -2.46231 -1.10491 0.608832
        0.389106 -1.59246 -0.69147
        0.291411 -1.35225 -0.709847
        0.484185 -1.62855 -1.12342
        -0.592059 -1.04202 -0.106147
        0.137967 -0.829151 -0.184784
        -0.879165 0.0903009 1.06234
        0.168674 -1.48769 -0.630841
        -0.511335 -0.855745 0.764109
        0.737518 -2.05069 -0.800341
        0.0439393 -1.39372 -0.595494
        -1.1477 -0.0878934 -0.683272
        -0.726828 -0.383202 -1.0162
        1.19742 -1.87834 -0.197744
        0.586944 -1.22444 -0.0599982
        0.178441 -1.63699 0.620649
        -0.738185 -1.59062 0.714496
        -0.115743 -1.41955 -0.311334
        -0.35353 -1.45271 -0.172144
        0.321079 -1.09205 -0.940227
        0.244007 -1.63833 0.165117
        0.385125 -1.35112 -1.57933
        1.17668 -1.01699 0.216729
        -1.27506 -2.07687 -0.0135652
        0.295026 -1.4588 1.30657
        0.205847 -0.939084 0.172774
        0.779927 -0.912133 -0.538711
        0.794648 -2.28895 0.611518
        -0.106809 -1.33654 -0.18369
        0.514936 -0.998628 1.22893
        -0.384757 -2.19304 -1.3324
        0.517273 -0.329542 -0.176897
        -0.0617485 -2.05415 -1.02505
        0.919953 -0.1423 -1.53734
        0.911588 -1.7092 0.398084
        0.46652 -0.237297 0.500218
        -0.166917 -1.22359 -0.490711
        -0.378956 -1.13811 -0.746912
        0.859978 -1.64963 0.159707
        0.248495 -1.96271 -1.44972
        0.930296 -0.101143 0.192277
        -0.753421 -0.0630144 -0.703395
        -0.279082 -1.85226 -0.935578
        -0.742647 -0.583413 -0.21442
        -1.40942 -0.883367 0.515392
        0.277224 -1.27341 -0.342212
        -0.699648 -0.920234 -0.440273
        -0.690097 -2.7316 -0.710842
        1.62825 -1.07031 1.08869
        -0.818781 -1.31102 -1.11137
        0.21567 -0.701624 -0.37335
        -0.6986 -0.539429 -0.118062
        1.15612 -1.32884 1.0194
        0.232397 -2.9499 -0.90238
        0.87038 -0.969122 -0.0741402
        0.746982 -2.23018 1.2458
        -0.379228 -1.54023 0.759953
        1.21291 -1.82701 0.899265
        -0.891538 0.190112 -0.746575
        -0.761459 -2.39631 -0.143802
        -0.706567 -0.0981603 0.634681
        -0.734874 -1.16914 -0.111878
        -0.909011 -0.330789 -0.159199
        -0.971191 -1.3717 -0.10106
        -0.175545 -0.208578 -0.197295
        -0.102757 -1.91929 -0.599601
        0.71648 -1.34581 1.1322
        0.370945 -0.105186 0.0778264
        0.112532 -0.939203 -0.0260278
        0.196956 -1.76024 -0.491551
        -0.364452 -1.07139 0.17489
        -0.424325 -1.60804 1.0544
        -1.27377 -1.94655 -0.191597
        0.433141 -1.10712 -0.824741
        -0.962659 -0.858663 -0.100553
        -0.348717 -0.253639 -0.0143275
        0.438153 -1.41639 -0.662215
        2.45726 -1.9131 -0.0569043
        1.10342 -0.461202 -0.992344
        0.364908 -2.21154 0.472714
        -0.89216 -1.15369 -0.329612
        0.442697 -1.61226 -0.369522
        0.876108 -0.931676 0.949657
        -0.686388 -0.923964 -1.16621
        -0.59786 -0.725157 -0.429915
        0.0736483 -1.00053 0.650879
        -1.14779 -1.01659 -0.511149
        0.549834 -0.652223 -1.09609
        -0.736541 -1.48316 0.720905
        0.464866 -1.76403 -0.239038
        1.6107 -2.03786 -0.382493
        0.031352 -1.09332 0.75918
        -0.513323 -1.50463 0.307362
        0.822791 0.204266 0.449769
        -0.275914 -2.71113 -0.415432
        -0.373659 -0.915672 -0.256087
        0.326794 -0.834147 -1.10951
        0.372224 -1.87342 1.26588
        -0.641592 -1.30436 -1.75102
        -0.000481999 -1.10232 1.21896
        -0.866538 -1.72042 0.621785
        -1.39581 -2.50096 -1.62062
        -1.00986 -1.43586 0.358185
        -0.827523 -1.51808 -0.184791
        1.52489 -2.19079 1.3206
        0.434377 -2.55714 0.377203
        -0.527616 -1.77833 0.607889
        -0.294244 -1.35645 0.267001
        0.529339 -0.415613 -0.121178
        0.558829 -1.74254 -0.104281
        -0.53105 -2.10802 -0.431524
        -0.0746205 -0.514333 -0.451914
        -1.11724 -1.28511 0.697616
        0.295398 -1.55027 -0.0124474
        1.30372 -2.33254 -0.443588
        0.467379 -1.1721 0.507181
        0.394407 -1.32201 -0.902535
        -2.29977 -1.24159 -0.685691
        -0.612047 -1.72954 0.362511
        -0.551413 -0.720757 -0.955607
        1.15446 -1.76232 0.912895
        -0.0252793 -1.37599 -0.945127
        0.253354 -1.80699 0.379055
        0.514408 -2.07401 -0.604436
        0.192427 -3.05136 -1.91162
        -1.3641 -0.995426 -1.02886
        0.845368 -0.994479 2.10085
        -0.611551 -2.12461 1.33428
        0.302131 -1.15649 0.612362
        -0.865302 -0.572321 -0.955316
        0.321745 -0.62501 -1.03681
        -0.590563 -0.434571 0.0897637
        0.131517 -0.987733 -0.444709
        1.12968 -1.76023 0.233791
        0.158299 -1.56327 1.22441
        -0.171872 -1.22615 0.298942
        -0.153424 -0.857393 -0.33947
        0.176529 -1.42518 0.858698
        -1.37496 -0.0164187 0.252068
        -1.37164 -2.23127 -0.830645
        -1.15508 -1.15162 0.536087
        -0.512604 -1.24716 0.022416
        -1.0704 -0.216914 -0.549819
        -2.14596 -1.32354 0.0381386
        -0.844489 -1.11343 -0.187699
        -0.193499 -0.577176 0.284381
        -0.22098 0.0351307 -0.649537
        -0.0860557 -0.537313 0.0325045
        0.784757 -0.321771 -0.100401
        -0.00256802 1.43357 -0.257843
        -0.343 2.25975 -0.234933
        -0.714915 1.19235 0.495942
        -0.504359 -0.148897 0.786838
        0.499941 0.988371 0.625772
        0.028359 0.13271 -0.542315
        -0.794033 0.242714 -0.401881
        1.17476 1.36165 1.05389
        0.707416 2.74597 1.4659
        0.981802 1.33958 0.177477
        -0.132119 1.16587 1.13793
        -0.299951 1.45388 -0.228619
        0.613334 0.195878 -0.0380962
        0.0777581 1.32774 -0.515683
        1.1887 1.01301 -0.778788
        -0.833118 -0.251139 -0.93656
        1.01152 0.51748 -0.500418
        -0.142909 0.494625 -0.224893
        0.334259 1.09615 -0.897892
        1.50785 1.39472 0.534171
        0.431685 2.24387 0.206995
        -0.599183 0.754986 0.554823
        -1.22778 0.833653 0.525013
        0.0641411 1.66795 -0.957188
        -0.146396 1.89075 0.31124
        0.259658 2.7978 0.799655
        1.0609 0.280163 0.163128
        0.729447 1.78267 1.09338
        -1.37778 1.74152 0.260606
        -0.952576 1.54383 0.534407
        2.51407 1.41628 -0.33088
        -0.856613 1.63336 -0.0752314
        1.02619 0.548353 -1.58723
        -0.137187 1.14787 0.208247
        0.011602 1.84248 -0.537285
        -0.407322 3.10362 0.259386
        -0.175038 -0.246881 -0.301952
        -1.33238 1.29505 -0.898726
        -0.824179 1.14425 1.40197
        -0.563552 1.56166 0.529259
        -0.14757 0.966463 0.0573949
        -0.270776 1.24362 -1.10812
        -0.295604 1.39664 -0.909678
        -0.0802189 1.3565 0.948392
        -1.08712 1.23088 0.337551
        0.741167 1.47805 0.623781
        0.206245 1.27001 -0.34658
        0.377875 1.97614 0.249203
        -0.288699 1.72696 0.361364
        0.00110807 1.26411 -1.03211
        0.150311 2.22256 0.173125
        -0.315908 1.08016 0.89153
        -0.817108 1.04185 1.50995
        -0.142182 1.91148 0.56896
        0.648735 0.449084 -0.742107
        -0.783585 1.17061 0.784644
        0.19021 2.02841 0.779415
        -1.96848 0.30716 -0.186237
        -0.406385 1.52302 0.42168
        0.204864 0.587537 -0.552993
        0.725862 2.23988 -0.424668
        -0.228627 1.86349 -1.40548
        -0.278367 1.27635 1.46611
        -0.277649 0.739959 -0.644072
        -1.94652 0.255056 -0.117308
        0.362119 1.30433 -0.302733
        2.37183 1.35861 -0.602604
        -0.121539 0.333617 -1.23322
        0.161247 0.869185 -1.01396
        -1.86319 1.60221 0.310051
        0.82332 0.709242 -1.12079
        -0.166035 0.26412 0.63664
        0.127044 0.541751 0.406806
        0.384931 0.427066 -0.489114
        -0.758681 1.30738 0.814646
        -0.1278 2.5178 -0.723829
        -0.718474 1.06774 -0.922433
        0.405871 -0.254637 0.296412
        1.24475 0.287393 0.936365
        0.979133 1.3063 -0.788058
        -0.450462 1.21134 0.526824
        -0.761009 1.44004 0.00799043
        0.410016 2.08152 0.687223
        -0.268143 2.15582 -0.264917
        -0.720548 1.78581 0.785675
        -1.2422 2.3133 -1.02069
        -0.729384 1.9287 -0.402481
        -0.474828 1.76634 -0.595903
        0.595335 2.3184 -0.159467
        0.119798 0.288426 1.27602
        0.158238 1.69593 -0.608767
        -0.00592585 1.66176 -0.934031
        -0.278888 0.895646 -0.0692419
        -0.35847 0.473254 0.760605
        -0.300136 1.44241 -0.449369
        0.951935 0.47244 0.0681363
        0.306666 1.61431 0.164801
        -0.549251 2.12619 -0.688232
        -0.426905 0.306785 -0.0716056
        -0.711789 0.781758 0.670702
        -0.260705 1.21345 0.0738981
        -0.65039 1.99438 1.41186
        1.13166 1.69628 -0.00386095
        0.0677038 0.683038 -0.349178
        -0.508739 1.59955 0.996065
        -0.197783 1.77915 -0.185743
        0.607568 1.30216 -0.0214461
        0.995795 0.428629 -0.77447
        -0.122643 1.0559 1.54351
        -0.705421 1.48721 -0.217642
        -0.073597 1.38632 0.188247
        -0.668164 0.970163 1.33489
        -0.450192 0.524553 0.709137
        -0.62588 1.59324 0.466912
        -0.682474 0.142707 0.382276
        -0.439815 1.17379 0.17014
        -0.964219 1.63322 0.565908
        0.31452 1.97387 -0.0135288
        -0.0121059 1.14205 -1.01371
        0.177172 0.565578 0.101288
        1.03387 0.785725 1.78923
        -0.3565 1.39699 0.723246
        -0.844448 0.374657 -0.193252
        -0.616251 2.15113 -0.457988
        -0.0222615 0.361036 -0.499595
        0.583409 1.92269 -0.589347
        -0.21801 0.937179 0.303463
        2.19952 1.48102 -1.78398
        0.0322364 -0.0528151 -1.67968
        0.237104 2.14362 -0.136611
        1.42249 1.93301 -0.397553
        -0.408679 1.12134 -0.990306
        -1.20237 1.59409 0.065745
        0.365469 2.0855 -0.145226
        -0.691308 0.972715 0.600408
        0.820958 1.6345 0.0817069
        -0.272207 2.12206 0.294839
        0.00442581 3.23306 1.4152
        -0.076495 1.10256 -0.721895
        1.27481 2.80406 -0.4731
        0.677958 0.230004 0.433897
        -0.098175 1.83557 1.62539
        -0.0367547 2.37001 0.0504684
        0.315042 0.668585 1.03846
        0.212042 1.05347 0.623437
        0.708691 0.360005 0.358416
        1.26635 1.618 1.10538
        -0.116029 0.974006 -1.03694
        0.313551 0.0624591 -1.07791
        0.745717 1.57604 0.234911
        0.501192 0.6405 0.839473
        1.27012 1.81274 1.12913
        -0.804703 0.435851 -0.0952187
        -0.701741 1.32937 1.26104
        0.978077 1.15519 0.0670811
        -0.721246 1.47981 0.923665
        -0.43037 1.84007 -0.769637
        -0.304301 1.08366 0.81489
        0.97221 1.66804 0.59225
        0.638137 1.34066 -0.319575
        -1.1581 2.11237 -0.959709
        -1.41704 1.61067 0.316622
        0.318723 0.340925 0.627988
        -0.313358 0.556225 -0.822228
        -0.926867 1.73209 0.229013
        -0.910304 0.113046 -0.736239
        0.642158 1.83408 -0.982694
        -0.0747924 2.8816 0.212098
        -0.128254 0.254822 0.132544
        -0.402058 -0.230117 -0.678705
        -0.862348 3.37081 0.241179
        -0.670933 0.910288 -1.44126
        0.541675 1.06027 -0.0189022
        0.614879 1.4246 0.35642
        -0.810967 1.05467 0.607373
        0.726361 0.550092 -0.437575
        -0.342365 0.369648 -0.524848
        -0.812112 0.852434 0.187732
        -0.610107 1.5774 -0.0245721
        -0.774488 2.13433 0.172822
        -0.556639 2.1378 0.376575
        1.20616 -1.35653 0.622523
        -0.691872 -0.859368 0.980685
        -0.914564 -0.955438 1.36843
        0.132356 -1.04562 0.837259
        -0.736063 -0.840117 -0.0260058
        0.962012 -1.76379 1.05744
        1.26935 -1.97828 -0.595493
        -0.195748 -1.48081 -0.764604
        0.476789 -2.10445 0.209719
        1.29533 -1.5859 -0.750685
        -0.259586 -1.56189 1.5773
        0.684814 -1.30626 0.275724
        -0.594492 -2.12717 0.344479
        -0.10883 0.45805 -0.0869705
        -1.31364 -1.64944 -0.766389
        0.360371 -1.87367 -0.00183099
        -0.00977829 -0.127034 -0.0663926
        0.123974 -0.638237 0.156509
        -0.612638 -1.28022 -0.877089
        0.211712 0.123463 0.195008
        0.222188 -0.873947 1.3636
        -0.662334 -1.85204 -0.138717
        -0.335375 -1.65259 -1.0525
        -0.348045 -1.95283 -0.263903
        0.0423631 -0.758346 0.143368
        0.302903 -1.0269 0.808557
        -1.4208 -1.78138 0.858575
        -1.15951 -1.44765 0.465336
        0.0377105 -2.00538 -0.224549
        0.459592 -1.44271 -0.395553
        -0.422533 -1.62347 0.140786
        0.279155 -1.6676 0.69081
        0.762861 -1.07763 0.365356
        0.0927508 -1.42644 -0.355693
        0.436381 -0.542123 -0.241008
        -1.68989 -1.00487 0.371687
        0.665166 -0.311073 -0.30172
        0.934886 -2.18722 -0.69253
        0.0812227 -1.04066 0.650438
        1.1912 -0.0209331 1.21118
        0.500188 -1.35735 0.515209
        0.140377 -1.26118 0.0215507
        -0.384187 -2.49582 -0.0440928
        -0.478163 -1.28395 -0.864562
        -0.626704 -1.38604 0.00932287
        -0.41081 -1.59467 -0.405955
        0.220053 -2.30903 0.296213
        -0.376535 -2.33939 -1.03155
        -1.53906 -0.859733 -0.482709
        1.0543 -0.500036 -0.801097
        -0.377071 -2.04831 -1.18752
        -0.661805 0.097527 1.1814
        -0.118542 -0.97554 1.05609
        -0.301532 -1.04691 0.730598
        -0.184052 -2.12271 1.34494
        0.398581 -1.73308 -0.392565
        -0.360524 -1.02102 0.414616
        -0.291623 -0.81176 -1.37734
        0.207105 -1.92488 0.674002
        -1.06379 -1.67923 0.991573
        0.553476 -3.75423 0.661031
        -0.107428 -1.02852 0.427203
        2.69427 -0.86536 -0.293601
        0.341707 -0.50293 -0.249602
        -0.649855 -2.0266 0.381397
        -0.362748 -1.61436 0.744577
        0.148428 -1.20153 -0.141168
        0.267775 -1.08105 -0.230697
        0.275962 -2.1211 0.662003
        -0.442543 0.592749 0.17015
        -0.365696 -0.451074 -0.0702057
        0.491277 -2.01324 0.966125
        0.985197 -0.765589 -1.05486
        0.333913 -0.617286 0.97696
        0.832299 -0.883025 0.876265
        0.662631 -0.492062 -1.90516
        -0.154684 -1.77212 -0.48615
        -0.986806 -1.87736 -0.843323
        0.957757 -2.30038 0.035996
        1.55429 -0.779726 0.762665
        -0.277119 0.39575 1.00211
        -0.2958 -0.898029 0.109302
        -0.78298 -1.27086 0.92625
        0.869292 0.172304 0.455737
        -1.96005 -1.13106 -0.526474
        0.326751 -1.21786 0.376353
        0.190258 -1.31422 0.380925
        -1.16273 -1.55753 1.06248
        0.351461 -0.837536 -0.767473
        0.320685 -0.173623 1.37776
        -0.466435 -1.67562 0.545527
        -0.142619 -0.958691 0.375032
        0.285687 1.26657 1.33424
        -0.359808 -2.08678 -1.17088
        0.101699 -1.21948 -0.656813
        0.000208077 -1.63523 0.6987
        -0.754549 -0.626192 0.293196
        -0.340616 -0.495149 0.122958
        -0.378092 -0.254911 0.530914
        0.520125 -3.08012 1.03055
        -0.330592 -2.00752 -0.186887
        -1.031 0.123375 -0.549499
        -0.0633205 -1.74817 0.33517
        -1.02188 -2.12218 -0.108893
        0.472628 -1.9259 -0.287039
        -1.50082 -1.44402 -0.242139
        -0.344404 -0.835755 1.00375
        0.0410312 -1.31703 1.11402
        -0.576137 -1.62621 -1.19018
        -0.935343 -1.58874 0.171876
        -0.0779421 -1.93112 -0.0560473
        -0.200115 -1.49381 -0.352028
        -1.32528 -2.3464 -0.311678
        -0.18617 -1.51778 1.63312
        -0.433723 -1.90014 -0.66569
        0.197798 -1.80104 -0.290086
        0.592379 -2.80708 1.4003
        -0.757173 -2.56788 -0.857785
        -0.999466 -1.99462 0.125991
        1.93892 -1.78852 -0.360978
        -0.498013 -1.92787 0.126816
        -0.729178 -1.08556 -0.434273
        -0.730821 -1.96017 0.545263
        0.031324 -1.58454 0.746923
        0.943973 -1.11968 1.44747
        0.456152 -1.40599 -1.03964
        0.696629 -1.89792 -0.508389
        -0.0118223 -1.74153 -0.185172
        0.32537 -1.6669 -1.64288
        0.864326 -1.12 -1.29025
        0.365723 -1.4013 -1.18867
        -0.745155 -0.220675 -0.412599
        -0.834139 -2.0214 0.233853
        0.514597 -1.29218 0.670943
        2.20857 -0.710151 -0.502552
        0.917831 -0.872606 0.886198
        0.301952 -2.20126 -0.538561
        0.429407 -1.10808 -0.878603
        0.0549227 -0.395021 0.123626
        0.384243 -0.950343 1.1349
        -0.361639 -0.545728 -0.800801
        -1.27145 -1.10909 0.934788
        0.651755 -2.09737 0.437066
        -2.37914 -1.18539 -0.405582
        0.349953 -2.02335 -0.0924141
        -0.62107 -1.26457 0.601373
        1.02124 -1.96183 0.68009
        -0.468867 -2.29515 -0.761036
        -1.11333 -1.89216 0.533259
        0.0829774 -1.28982 -0.0622343
        0.0426813 -1.50321 0.0078865
        0.379518 -0.651826 -0.816362
        0.0068607 -0.661361 1.99886
        0.0104769 -2.20008 -0.466693
        -0.113012 -1.87398 -0.8567
        -0.841273 -0.714115 -2.00439
        -0.738252 -1.48159 -0.911408
        -0.59602 0.337573 0.332959
        0.429816 -1.08992 -0.28313
        2.17862 -2.20572 -1.4807
        0.823592 -1.50291 -1.77114
        0.889454 -1.59906 -0.966785
        0.937473 -0.552178 -0.25327
        -0.116233 -1.52305 0.338416
        -0.22482 -1.52913 1.14705
        -1.54744 -0.50936 0.22798
        -0.0171269 -2.12674 -0.13093
        0.566112 -1.69453 0.240123
        -0.258382 -1.45005 1.23724
        -0.66623 -1.34576 0.26322
        0.195598 -1.13326 -0.143424
        -0.348367 -0.97231 1.06793
        -1.19411 -0.193251 0.495963
        0.144029 -1.40607 0.572229
        -0.530526 -1.36851 0.600583
        -0.428419 -0.242819 0.816774
        -0.528532 -1.39584 -0.688045
        -0.0104641 -0.17926 0.45974
        0.502525 -0.751359 0.306596
        0.176469 -2.10573 -0.735491
        -1.27082 -1.60885 0.413151
        -0.915912 -0.401903 0.49653
        -0.897012 -0.814541 -0.417668
        -0.699409 0.292397 -0.0643044
        -1.04229 -1.39599 -0.407119
        -0.475668 -2.33877 1.17785
        0.180825 -2.40077 0.522608
        0.903151 -0.733781 -0.0707504
        0.119609 -1.17758 1.36633
        -0.126797 -2.18873 0.0553264
        -1.54911 -1.56458 0.353091
        -1.14061 -1.52425 -0.298864
        -0.0776288 -2.0007 0.145429
        0.212329 -0.713265 0.676109
        0.880043 -0.0977947 1.26041
        0.354857 -0.230269 -0.660375
        0.879757 0.27921 -0.764861
        1.6208 -0.554229 0.206385
        0.221055 -0.685972 -0.786618
        0.839182 1.70962 0.939435
        0.358838 1.09566 -0.271589
        0.196819 0.866313 0.564243
        0.634277 0.898417 -0.240101
        -0.821726 0.607096 0.327609
        -0.456199 0.0163964 -1.19232
        -1.36562 0.389954 1.58675
        0.249505 0.411124 -0.629366
        0.267659 0.131584 1.30441
        0.556004 -0.103535 -0.0345439
        -0.214645 0.138438 -1.47023
        1.15966 0.0868139 -0.413731
        0.194478 0.98504 -1.01774
        0.739113 0.52876 0.164298
        -1.20327 0.0403502 0.772004
        0.353391 -0.299419 -0.380289
        0.938417 0.0527061 0.412682
        -0.312175 -0.182042 -0.396681
        0.268383 2.01832 0.195342
        0.602381 1.44374 -0.31156
        0.146004 0.305776 -0.166931
        0.371367 1.55462 0.321095
        -1.18307 -0.0216316 -0.596692
        0.492615 0.587589 -0.489235
        -0.374121 0.0616653 0.676479
        0.0460583 0.519925 0.11354
        -0.621322 1.41452 0.271491
        -1.21948 1.53017 0.368721
        0.000111579 1.23809 -0.0570631
        -0.383042 0.438745 -0.18998
        -2.08695 2.11002 0.475905
        0.354658 1.15152 0.439331
        -0.0690463 1.89043 -1.3151
        -0.574698 0.108749 -0.741692
        0.533015 1.82571 0.63019
        -0.598937 0.357588 -0.392416
        -0.28423 2.66316 -0.784513
        0.911661 0.825501 1.69988
        0.0300833 0.525181 -0.221612
        0.422182 1.70283 0.356455
        -0.906534 2.04516 -1.21688
        -0.859463 1.00585 1.4152
        0.762714 -0.270542 0.389442
        0.435658 1.32436 -0.371938
        0.279166 1.29485 -0.293643
        0.434726 0.542706 -0.143933
        -0.584976 1.83644 1.06559
        -0.0315905 0.49399 -0.308685
        -0.293743 2.4413 0.747467
        -0.282196 0.59544 -0.902621
        1.27794 1.53021 0.0528561
        -0.292269 0.890746 1.56813
        -1.38142 2.4427 0.956811
        0.38828 1.37935 1.16635
        1.41054 0.784843 0.638729
        1.01657 0.860106 0.455126
        -0.885477 2.31113 -0.116571
        -0.148979 2.13191 0.557863
        -1.17629 0.958383 -0.280486
        -1.17742 1.82588 -0.515761
        1.01604 1.98515 1.45321
        0.13153 1.68346 -0.390914
        -0.256603 1.5441 0.23293
        -0.395647 0.986521 0.543505
        1.44659 0.813652 -0.228388
        -0.230331 1.39419 0.159155
        -1.12228 0.00200142 0.380243
        -0.281651 1.10484 -0.502945
        -0.678699 0.420556 -0.179536
        0.316979 1.7104 0.37835
        0.054968 0.726426 1.6076
        1.29523 1.90169 0.31641
        -0.411062 1.4876 0.818958
        -0.887091 1.93334 0.651121
        0.72387 1.63317 0.155511
        0.0767708 0.793953 0.363687
        -0.494371 0.553125 -0.399342
        -0.163243 1.23543 -0.444098
        0.0587102 1.04608 -0.407575
        -1.00314 1.15824 1.17079
        -0.410114 0.367875 0.207731
        0.0112363 0.879127 -0.722444
        0.638542 1.00581 -0.770766
        1.81975 1.61397 -0.239694
        -0.42296 2.42043 0.386992
        -0.143562 1.46859 -0.934452
        0.17021 1.82996 -0.566883
        0.205487 0.472549 -0.811138
        0.769377 1.34347 0.197318
        -0.640965 0.711743 0.713533
        -0.0962994 1.07056 -0.542111
        -0.693131 0.693096 -1.01276
        -0.232338 0.997708 -0.945112
        1.79947 1.6743 1.36849
        -1.59454 1.61379 0.516891
        -0.854233 1.89702 1.53123
        -0.536991 0.749051 0.252322
        -0.16484 2.2539 -1.89072
        0.381823 0.564034 -0.0640844
        -0.522642 1.61161 -0.381275
        -0.500021 1.63379 0.349982
        0.546388 1.41949 0.580917
        0.888435 1.81765 -0.161368
        -0.740206 0.685307 -0.442832
        -0.602943 0.414428 0.0969917
        0.575232 1.97373 0.378407
        -0.930136 0.726592 -0.251507
        0.67771 1.69207 0.29471
        1.7474 1.74233 0.16736
        0.628847 0.535333 0.572085
        -0.37555 1.9368 -0.434985
        -0.0118795 2.08289 -0.0461088
        -1.18751 2.36559 0.111613
        -0.496128 1.98899 -0.0663182
        0.423362 0.0682397 -0.33355
        0.258979 0.65941 0.417543
        0.633702 2.43294 -0.759319
        -0.322589 0.916107 -0.500205
        0.867601 0.84391 -0.597917
        -1.4927 1.8355 -0.61137
        -0.448574 2.32111 -1.09706
        -1.50526 0.877217 0.149184
        0.581004 0.90562 1.33969
        1.09071 1.24124 0.125369
        -0.410546 1.80049 0.845619
        1.0812 1.71574 -1.09891
        1.09208 1.38052 0.112987
        -0.020366 0.791075 0.0423867
        0.281386 1.92282 -1.46405
        1.49889 1.7767 0.548831
        0.438976 -0.232169 0.364599
        0.569806 2.04866 -1.92017
        0.801041 3.14599 0.764693
        0.264554 1.92442 1.1332
        1.14678 0.307235 0.744226
        0.340575 1.29863 0.235531
        1.37923 1.88159 0.510557
        -0.352706 1.4075 0.524687
        0.713303 1.50262 0.105898
        -0.449474 2.3678 0.36991
        0.366519 1.04876 1.71192
        -0.556493 0.301455 -0.206833
        -1.60156 0.351286 0.615259
        0.539648 -0.347996 0.327201
        -0.140363 2.19569 -0.10554
        -1.04706 1.41854 -1.291
        0.384059 0.566414 0.00665388
        0.610594 1.79822 -0.801981
        0.993373 1.81825 0.278049
        -0.824075 1.89727 1.0945
        1.11214 1.49126 0.533561
        0.98735 0.584602 -0.192347
        0.356768 1.14067 1.41901
        -0.474147 1.41774 -0.647212
        -0.194747 3.20664 -2.08303
        -0.337215 2.65828 0.604218
        -0.307973 1.78354 0.537383
        0.64817 1.95852 -0.739071
        -0.798167 2.33418 -0.0208715
        1.41229 -2.44671 0.654104
        0.303272 -1.68509 -0.634669
        -0.333374 -2.23626 1.03446
        0.136191 -1.39251 -0.217643
        0.726207 -2.66219 0.412075
        0.862885 -1.86763 -1.60419
        1.03196 -0.722456 -0.0786062
        0.0213204 -1.87721 0.0177489
        0.064881 0.292334 -0.770885
        1.35192 -0.767276 -0.871209
        1.15163 -1.27647 -0.922344
        0.155879 -1.37244 -0.368085
        0.449775 -1.22675 -0.182954
        0.865301 -1.47582 1.2349
        -0.460123 -2.37131 1.03544
        0.84127 -0.0732206 0.383668
        0.722779 -2.83343 -0.390831
        -0.481817 -1.78011 0.697783
        1.26567 -0.661202 -0.288996
        -0.494763 -1.48608 -0.1046
        0.88138 -1.99464 -0.198812
        -1.37922 -0.54744 0.736843
        1.84925 0.352635 0.621359
        0.362791 -0.951575 0.0530586
        1.90894 -1.13413 -1.03745
        -0.972266 -1.00189 0.00901294
        -0.755345 -1.34236 0.183732
        0.641301 -1.1223 -0.327689
        0.625005 -0.547609 0.144444
        -0.144635 -1.64889 0.726198
        0.637772 -2.24126 -0.7009
        1.22502 -2.38523 -0.087095
        -0.45623 -1.76163 0.193217
        -0.838705 -2.57745 -0.321479
        -0.45834 -0.283019 -0.208504
        0.681648 -1.34132 0.250617
        1.28439 -1.73654 -0.509338
        0.585863 -1.07957 -0.696025
        0.948052 0.00712977 -0.680323
        -0.37107 -1.46096 0.151809
        0.411703 -1.6923 -0.736718
        0.725755 -1.69709 -0.803705
        -0.607823 0.377234 0.0414727
        0.618591 -1.26801 1.76688
        -0.709525 -1.02445 0.295742
        0.561542 -1.64853 -0.362509
        -0.00236338 -1.59441 0.18166
        -0.499733 -1.30183 -1.6844
        0.118491 -1.18901 0.970194
        1.93791 -1.64262 -0.0811666
        0.865574 -1.70556 0.191584
        -0.0569014 -1.23321 0.368019
        -0.584351 -1.47109 -0.474952
        0.439726 -2.67342 -0.466221
        -0.474254 -0.499859 -0.532129
        1.27598 -1.75862 0.953485
        0.457423 -0.568524 -1.11305
        -0.294497 -1.61116 1.20857
        -0.302555 -2.54657 -0.585631
        -0.740978 -2.59696 0.108692
        -0.242055 -1.41079 -0.257436
        0.000499352 -1.62492 0.969458
        0.0740606 -0.756363 0.38487
        0.484816 -0.285318 0.12106
        -0.0763898 -0.144818 0.154765
        1.72659 -0.618286 0.0346702
        -0.760823 -1.60647 -0.350635
        -0.385279 -2.22023 0.192021
        1.38037 -0.814916 1.22567
        0.182764 -1.44717 -0.198657
        0.481673 -1.49528 0.771618
        0.0633907 -1.19558 -0.75129
        0.497252 -1.09366 -0.583332
        0.464417 -0.631332 -0.839958
        0.356627 -1.97616 -0.443834
        0.369497 -2.21097 0.906472
        0.0107252 -0.493548 -1.57183
        0.576521 -1.60921 1.00019
        -0.971782 -1.45203 -0.639713
        0.703082 -0.50215 0.130359
        0.022944 -0.326243 0.257883
        -0.593371 -1.15583 -1.493
        0.263724 -1.6097 0.169285
        0.922425 -1.62129 -0.3516
        -0.870499 -1.22063 1.26113
        0.269578 -0.953293 -0.909465
        -0.484181 -1.54986 0.233613
        0.160293 -2.09559 0.424034
        -0.41657 -1.59874 -0.23049
        0.266696 -1.38015 0.377377
        0.42418 -1.55413 -0.753241
        -0.247588 -2.34666 0.169855
        0.135549 -2.86845 -0.647124
        0.393623 -1.72835 -0.105244
        -0.510043 -1.35341 0.48492
        0.946109 -2.05 -0.0807296
        -0.000271639 -0.197012 -0.89314
        0.967948 -1.48582 1.57743
        -1.34105 0.151203 0.0228582
        0.484247 -1.72347 1.17087
        0.238416 -1.98538 0.298474
        0.155504 -1.85553 -0.500368
        -0.437739 -2.069 1.17811
        0.0884979 -2.17509 -0.863997
        0.00224436 -1.26689 0.178243
        -0.522636 -1.67341 0.170998
        1.23071 -0.506663 0.4072
        -0.20434 -1.42994 -0.48338
        1.59625 -2.42145 0.0490105
        0.745564 -0.209961 -1.01792
        1.35722 -2.35344 0.0277134
        -0.0603116 -0.428644 -0.814822