<?xml version="1.0" encoding="UTF-8" standalone="no" ?>
<VTKFile byte_order="LittleEndian" type="UnstructuredGrid" version="0.1">
  <UnstructuredGrid>
    <Piece NumberOfCells="0" NumberOfPoints="1764">
      <PointData>
        <DataArray Name="velocities" NumberOfComponents="3" format="ascii" type="Float32">
        0.00372847 -1.30863 0.144014
        -0.476262 -0.704095 0.706023
        -0.855398 -1.24346 -0.622194
        -0.433116 -0.746217 -0.143548
        -0.131139 -1.54542 -1.37351
        0.124175 -0.568808 0.466443
        0.588281 0.485915 0.536632
        0.427954 -1.78223 0.183632
        0.949482 -1.44593 0.432032
        0.109968 -1.41887 -0.898447
        1.7165 -1.21302 -0.48078
        -1.06823 -0.875862 -0.307516
        -0.44295 0.50448 -0.960893
        -0.536605 -1.62506 1.25071
        -0.849003 -1.25019 -0.956931
        -0.763929 -1.42591 0.299548
        0.182338 -1.78323 0.312824
        0.278438 -2.24228 0.512931
        -1.05278 0.352574 -0.9668
        -0.239511 -0.985696 -1.03416
        0.807782 -1.02832 -0.229392
        -0.575881 -1.43617 -0.850115
        -0.134995 -0.411343 -0.32967
        -0.235821 -1.97059 -0.323304
        -0.756923 -1.19528 1.35678
        0.0352247 -1.45957 0.149386
        -0.164204 -0.785148 -0.790599
        0.206728 -1.79784 -0.536056
        1.10295 -1.22302 -0.323004
        -0.234083 -0.775395 -0.463836
        0.893334 -1.35715 -0.156815
        -0.642821 -1.92507 -0.160496
        -0.785463 -1.81228 -0.526922
        0.160227 -0.346404 -0.0784149
        -0.203685 -0.982909 -0.379642
        -0.0694457 -1.14223 -1.25133
        -0.00128452 -0.367741 -0.253548
        -0.250803 -0.763288 0.942344
        -1.30763 -1.9053 1.00925
        -0.559374 -1.52783 0.371827
        -0.815612 -0.882503 0.274801
        -0.0504664 -1.66861 0.372942
        -1.88629 -0.564558 1.22057
        -0.422517 -0.628962 -0.14793
        0.0190985 -0.15855 -0.103736
        -1.33264 -1.60399 0.802708
        -1.74657 -0.785399 0.932651
        0.347032 -1.28258 -1.24296
        0.906003 -1.01518 -0.487044
        -1.06503 -0.715034 1.18651
        0.246266 -1.64081 -0.173946
        0.313272 -1.99112 -1.58501
        -0.593134 -0.307811 -0.0962894
        0.0389538 -1.57445 -0.57174
        0.178632 -0.662417 -0.479321
        0.0970476 -2.32756 0.687051
        0.246012 -1.92608 -0.722874
        0.601914 -2.36212 -0.110848
        0.810599 -1.31083 0.850546
        -0.55831 -0.377716 0.338123
        -0.401558 -1.2047 -0.205778
        -0.905928 -1.45431 1.22164
        0.58849 -1.60904 -0.376545
        0.538057 -2.26996 -0.734712
        1.0767 -1.38757 0.47473
        0.669877 -1.90644 -0.00699188
        1.73063 -2.04658 -0.0681242
        -0.08651 -2.23974 -0.125978
        -0.111784 -1.56526 0.594282
        0.208092 -2.16256 -0.639997
        0.174859 -1.54186 -0.304208
        -0.207626 -0.858622 -0.481778
        0.760447 -1.49489 0.514696
        0.601185 -1.47502 0.693215
        -0.794517 -2.76009 1.18896
        1.21591 -0.475658 -0.120583
        0.114733 -2.86714 0.311532
        0.517852 -0.522303 -0.459924
        -1.04428 -1.32395 0.717528
        0.894188 -1.42574 1.08251
        0.09768 -1.529 1.9019
        0.456139 -1.8589 0.379606
        -1.12357 -1.33775 0.989468
        -0.834167 -1.97566 0.137651
        -1.09448 -1.88892 -0.782213
        -1.70621 -1.00131 -0.117436
        0.563192 -0.274768 0.514914
        -0.387047 -1.97486 -1.0147
        -0.112537 -0.902148 0.282187
        0.657966 -0.999006 -1.12889
        -0.800588 -1.45176 1.24595
        -0.606631 -1.99608 -0.44593
        -0.211151 -1.34222 0.0840053
        0.788524 -0.82616 -0.412704
        0.10525 -0.802326 -0.672999
        -0.504378 -0.141828 0.279329
        -0.169064 -0.745206 0.090151
        0.312867 -0.019543 0.457142
        -0.167743 -0.979654 0.171981
        -0.385037 -1.56307 -0.401604
        -0.196829 -1.52579 -0.226507
        1.51361 -1.48344 0.654872
        -0.147374 -0.544614 0.417964
        0.710934 -0.980373 -0.38056
        -0.73008 -1.36582 -0.370441
        -0.594223 -1.62888 0.580975
        0.352035 -2.46886 -0.493879
        -0.417172 -0.298566 0.656216
        -0.0615219 0.224896 0.937387
        -0.0671116 -0.662323 -0.157251
        0.280007 -0.946226 -0.741099
        0.916918 -1.66538 -0.792158
        0.882713 -0.223634 -0.113644
        0.347641 -0.626141 -0.233198
        -0.275318 -2.08858 0.76814
        0.437389 -1.81414 0.319544
        0.444003 -0.371132 1.5714
        1.11506 -1.20685 -0.206089
        0.100845 -1.58284 0.400061
        0.426312 -2.02697 -1.03405
        -0.758319 -1.33061 -0.22594
        -1.20384 0.109303 -0.477477
        -0.897931 -1.01062 0.195155
        0.00453867 -1.89053 -0.412546
        0.365618 -0.533217 -0.615818
        -0.545097 0.233317 -0.349961
        1.34545 -1.18858 -1.2913
        1.49996 -0.99649 -0.486711
        0.473017 -1.36861 0.43483
        0.652527 -1.66081 0.111146
        0.236893 -1.96464 -0.0856752
        0.778708 -2.4678 0.246069
        -0.057869 -0.513564 -0.339632
        -0.319007 -0.427748 -0.513914
        -1.02767 -1.30351 0.725594
        -0.99702 -2.37684 -0.592812
        -0.614022 -1.2145 0.418346
        0.902388 -1.86849 -0.332863
        1.09499 -2.23159 0.566554
        -0.559376 -1.51669 -1.36778
        -0.500979 -1.51804 0.219989
        -0.932237 -0.728013 0.357379
        0.348474 -1.029 0.18983
        0.381471 -1.55795 0.935802
        0.432148 -0.989485 0.526578
        -0.640637 -1.75861 -0.043224
        -0.000374678 -1.98011 0.918959
        0.810772 -1.94478 0.176386
        -1.44948 -1.91181 1.14614
        1.33208 -1.07513 -1.73546
        -1.28337 0.00520642 -0.706297
        1.52043 1.05698 -0.194208
        -1.15245 -1.24677 -0.638461
        -0.0162236 -0.196777 -1.64729
        -0.0836274 -1.46721 -1.12309
        -0.78022 -1.36268 0.412353
        0.101443 -1.00814 0.00417609
        -1.14685 -1.98783 1.16773
        0.943732 -1.56796 -0.176111
        0.715356 -0.697135 -1.81607
        -0.299812 -0.076133 1.13821
        -1.09464 0.0285211 -0.0896157
        0.483789 -0.715104 -0.137481
        -0.416827 -0.779908 0.791425
        0.756535 -0.421989 0.605518
        -0.923996 -0.76586 -0.217523
        -0.523401 -1.68955 0.340305
        -0.218589 0.165323 0.658933
        0.59043 -1.4687 0.652394
        0.522976 -1.59897 0.102794
        -0.209554 -1.05464 -0.940806
        -0.586771 -1.35927 1.27619
        -0.0611108 -1.0671 -0.0760326
        0.812139 -0.960836 1.08308
        -0.751009 -0.327835 -0.485433
        -1.14604 -0.543683 -0.403082
        -0.52902 -0.683101 -0.0835502
        0.798385 -1.51429 -1.55628
        -1.05428 -2.86152 0.310233
        1.87622 0.274738 -0.578882
        0.784758 -0.321771 -0.100399
        0.00625483 1.10477 0.145214
        0.419326 -0.0190998 0.426592
        -0.891753 0.921637 0.829083
        0.106942 -0.0516961 -0.70774
        0.113999 1.24859 0.631654
        1.56925 1.1847 0.478989
        0.472345 1.0294 -0.764643
        -0.782354 0.938397 0.510783
        0.103469 -1.48215 -1.2204
        0.0348991 2.07885 1.06996
        -0.309429 1.23359 -0.397722
        0.06803 0.51389 1.18396
        1.55883 1.24626 0.199953
        -0.575394 1.48798 -0.282213
        0.660407 2.04423 -1.02193
        0.0777317 0.416838 -0.386448
        -0.780063 1.85791 -0.186004
        0.0628479 1.45128 -0.552547
        1.97229 0.634524 0.221736
        0.000810712 1.65435 0.176577
        1.56483 2.08664 -0.186097
        -0.374065 2.18395 0.76232
        0.860146 2.05238 -0.37518
        -0.00206213 -0.166969 -0.0408009
        0.683546 1.62176 0.532011
        0.752735 1.19257 -0.144919
        -0.127242 1.44874 -0.92365
        0.347688 2.9535 0.0622644
        -0.814831 1.43346 -0.981334
        0.0415667 0.972842 0.302383
        -0.279917 1.58267 -0.386487
        0.581926 0.903992 0.163636
        0.18373 1.08081 0.286416
        0.80677 0.60158 -1.31852
        0.575634 2.32034 0.893174
        0.367113 0.364713 0.645177
        -0.7178 1.33942 -0.421702
        -0.425931 1.69896 1.00571
        0.814265 1.36458 -0.930535
        -0.343647 1.90994 -0.129928
        -0.542406 0.369613 0.485041
        0.59202 1.44254 0.670058
        0.0103722 2.48143 1.1052
        0.462652 1.51022 -0.0119243
        0.28784 1.82788 0.49049
        0.279075 2.25263 -0.42936
        -1.22942 1.70991 0.631472
        0.182962 0.779482 -2.10683
        -0.761369 1.03263 -1.0289
        0.235193 0.0497827 0.274752
        -0.278097 1.79077 1.22826
        1.19819 1.30547 0.608844
        -0.71725 1.59262 -0.0448062
        -0.49462 1.17504 -0.278292
        -0.291376 2.77905 -0.443912
        0.701579 1.03968 0.00728778
        -0.705934 2.00821 0.293135
        0.500631 1.82382 0.327545
        1.19357 0.445652 1.94012
        -0.577162 1.44065 -1.9454
        0.200947 1.67292 0.978209
        -0.387793 0.317891 -0.975219
        -0.806211 2.10408 -0.184648
        0.102618 0.0815038 -0.262071
        0.0205327 0.317631 -0.182626
        -1.47016 0.801831 -0.256285
        0.487226 0.654323 1.66237
        -0.595384 -0.107677 0.169998
        -0.630995 1.82336 -0.157849
        -0.154533 0.797275 0.651328
        0.0399979 1.93725 -0.544221
        -1.38883 1.39162 -0.277534
        0.292247 1.85848 -0.0415754
        1.18519 1.35641 -0.0249285
        -0.979228 0.188401 0.190201
        -0.732931 0.534406 -0.981987
        -0.682172 2.36057 -0.164282
        -0.195268 -0.389937 -0.398684
        -0.239559 2.09818 0.0015475
        -1.55629 1.74971 0.235365
        -0.320288 2.17591 -0.95962
        -0.739538 1.91503 -0.267451
        -1.34535 2.57129 0.0376105
        -0.342987 0.330605 0.0839113
        -0.278881 1.49257 1.32653
        0.033468 1.02139 0.638276
        0.141492 0.842991 -0.237322
        0.707221 1.53955 0.475708
        0.730142 1.34206 0.624881
        -0.133629 0.638902 -0.708029
        -0.149735 1.84556 0.730505
        -1.69466 1.19863 0.19381
        -0.244434 0.911741 0.783174
        0.13387 1.84336 0.878808
        0.772869 0.276791 -0.507334
        0.588174 2.12818 0.0521861
        -0.990972 1.39195 0.167192
        1.14066 2.71168 -0.221311
        -0.568431 1.46086 0.163726
        -0.0661686 0.689618 -0.548735
        -0.424779 2.35169 -0.0308726
        0.889198 1.63702 0.503255
        -0.385517 1.42194 0.974266
        0.835106 1.90921 0.174639
        0.277353 1.56468 -0.513133
        0.369791 0.304863 -0.766158
        -0.106251 1.873 0.418061
        0.644928 1.89154 0.074703
        -0.522777 0.262601 0.0392634
        0.0281849 2.12143 0.198641
        0.284511 1.33204 -0.0869596
        0.15381 1.68212 -0.00900083
        -0.0783535 1.36329 0.001619
        1.00633 1.24153 -0.920729
        -0.598654 0.137355 -1.72558
        -0.258253 0.909402 0.463692
        -0.257534 1.85891 -1.06049
        -1.0391 1.4501 0.560089
        0.158534 1.02074 -0.391789
        -0.0423764 1.5307 -0.409345
        -1.18939 2.38424 1.59487
        1.53235 1.38683 -0.0721487
        1.23004 1.39598 0.242808
        -0.781188 0.615958 -0.27021
        0.705006 0.656389 -0.692485
        1.02004 1.05843 -0.496692
        0.526899 1.62372 0.463456
        -0.336307 2.04593 0.947246
        0.532675 1.74221 0.186041
        0.297184 0.303617 0.197537
        -1.1235 2.62905 0.567273
        0.595988 1.13802 0.0659081
        -0.3775 1.41264 -0.45508
        -0.320286 1.85001 -0.0909306
        0.57432 1.4405 -0.660596
        1.34949 1.59032 -0.0616198
        0.130911 0.744324 1.10437
        -1.71643 1.58395 0.702424
        -0.234769 3.08896 -0.111627
        -0.159404 1.47944 0.142094
        0.357183 0.64367 -0.604118
        0.0912036 1.34101 0.846942
        0.148521 0.0784289 0.809485
        -1.17637 1.44836 -0.71054
        -0.0778648 1.39509 -0.320456
        -1.0581 -1.04108 -0.260117
        -0.116566 -0.257326 0.674285
        -0.309847 1.14713 0.320579
        -0.204137 0.219433 0.993607
        -0.055913 1.184 -1.02446
        -0.611787 1.09919 -0.708242
        -0.842159 1.0104 -0.62167
        0.439477 -0.418046 -0.654581
        -0.474124 1.21387 -1.14216
        0.253344 0.845902 0.507377
        -0.880143 1.82834 0.625167
        -1.01936 1.47447 0.54275
        -0.886754 1.07643 -0.68738
        -1.39789 1.21329 -0.611282
        0.752379 1.39614 -0.817322
        0.143826 2.33878 -0.0319579
        0.414753 2.58797 0.464039
        -0.53143 2.42235 -0.0786286
        0.7594 0.927266 0.329151
        0.12014 1.32975 0.099465
        -0.172154 1.41025 0.692041
        -0.769644 1.78079 0.133047
        -0.990389 0.790055 1.12363
        0.0488009 1.01448 -0.575756
        0.534712 -0.201158 -0.738524
        0.44705 0.860255 -1.83741
        0.575985 1.83662 1.45849
        0.470196 0.937081 -1.01936
        0.645033 1.87958 -0.0265854
        0.764199 0.560739 1.08937
        -0.278625 1.32049 0.933587
        1.03276 1.75117 -0.542141
        0.82193 -1.24365 -0.31485
        -0.261187 -0.232579 0.228583
        1.03113 -1.46563 -0.324673
        0.193411 -2.00358 0.373146
        -0.933701 -1.14124 -0.340121
        1.29016 -1.42189 0.996162
        0.482798 -2.4151 1.64294
        -0.517632 -1.59577 1.37761
        -0.827895 -0.676868 1.15443
        -0.08445 -2.38629 0.903703
        0.258496 -1.13769 0.345876
        -0.670987 -1.30112 1.38416
        -0.353038 -0.660727 -0.217368
        0.905557 -1.17883 0.797635
        0.542985 -0.889158 -0.119717
        1.50935 -1.25339 0.663799
        0.311477 -1.79594 -0.263071
        0.30582 -2.26474 -0.320077
        0.565533 -2.67655 -1.56168
        0.8662 -1.4616 -0.556684
        1.99264 -1.25937 0.297239
        -0.0324807 -1.3793 -0.559974
        0.610231 0.254428 -0.884826
        0.132838 1.37378 0.0790243
        -0.372909 -2.31367 0.0685667
        0.584337 -0.224125 0.210203
        0.1791 -1.55803 -0.226199
        0.382306 0.388559 0.148094
        0.863153 -0.573965 -0.657591
        0.12087 -1.02265 -0.0814697
        -0.84722 -1.68314 -0.860756
        -0.37334 -1.16813 0.836419
        -0.424976 -3.02836 -0.0587495
        -0.930554 -1.31298 -0.366148
        0.170032 -1.08227 0.169639
        -0.41316 -1.39766 -0.774721
        0.212719 -1.41541 -2.2209
        0.207824 -0.95949 -0.206236
        0.361463 -2.68149 -0.336703
        -0.989584 -1.59033 0.288134
        1.48382 -1.69815 -0.479666
        -2.39556 -0.362756 -1.10473
        -1.46176 -1.55919 0.0618229
        -0.583143 -1.68639 0.217327
        -0.103047 -1.36257 0.396235
        0.20191 -0.620053 0.577187
        -0.134815 -1.02832 -0.263739
        0.48992 -1.05301 0.739591
        0.708244 -1.76902 -0.813818
        0.765932 -1.26138 -0.0326581
        -0.702493 -1.79133 0.58203
        -0.204982 -1.38231 -0.111971
        1.05579 -2.39721 0.0145958
        -1.56809 -1.0397 0.598572
        0.424081 -1.07431 0.508888
        0.33467 0.313688 -1.0466
        1.40597 -2.28969 0.425098
        -0.590828 -2.13538 0.565048
        -0.526249 -1.69955 -0.118124
        0.432307 -1.17017 0.677777
        0.636446 0.135336 -0.615844
        0.0685263 -1.3772 0.688372
        -0.62681 -3.05821 0.397522
        -0.151552 -1.20425 1.94416
        -2.1664 -2.141 0.151139
        -0.509442 -1.26973 0.675414
        1.11644 0.388649 -0.884686
        1.47223 -1.68137 -0.256995
        0.430539 -2.22867 0.134247
        0.356406 -1.14179 0.064799
        0.984571 0.612598 0.379232
        0.93284 -0.38722 0.225422
        -0.221133 -2.39996 0.870998
        -0.0650867 -2.17734 -0.824505
        -0.11717 -1.11745 0.130011
        -0.835996 -0.718506 -0.91874
        0.613512 -0.907285 -0.676343
        0.362701 -2.54673 0.575422
        -0.872813 -0.90311 0.140108
        -0.37343 -1.27602 -0.776444
        0.353161 -0.846227 -0.931761
        -0.861469 -0.479146 0.2979
        0.597873 -1.75424 0.374921
        -0.518999 -1.41595 0.756573
        -0.727372 -0.134198 -0.19019
        -0.45049 -1.9719 -1.05785
        -1.51452 -0.440883 0.260168
        -1.0058 -1.35591 -1.07007
        1.94865 -1.30624 -0.370834
        0.488681 -2.32806 -1.64223
        1.06223 0.109887 0.637076
        -0.116941 -1.75875 -0.168389
        -0.647768 -0.727815 1.02229
        0.358959 0.267787 0.156397
        -0.823575 -0.13342 0.096154
        0.162134 -1.98191 -0.681356
        -1.03542 -0.401254 1.40683
        -1.02413 -2.50636 -0.807765
        0.273479 -2.36717 -1.25233
        -0.106721 -1.38506 0.269706
        0.309378 -0.452982 0.452499
        -1.78946 -2.30494 -0.823548
        0.144896 -1.18626 0.0680142
        -0.748748 -1.07863 -0.432265
        -0.996873 -0.780476 -0.0639147
        0.00395499 -1.23754 -1.69634
        -0.847064 -1.07642 0.22836
        -0.765419 -0.507206 -0.260799
        1.26188 -0.830854 -0.242752
        0.14166 -1.35048 -0.967679
        -0.0522497 -0.971486 0.153309
        0.897899 -1.87973 0.115208
        -0.401131 0.57312 -0.0618491
        0.418532 -1.985 -0.4185
        0.541705 -1.88529 1.94275
        -0.535607 -2.33915 -0.629253
        -1.06929 -1.87064 -0.105867
        0.542755 -1.96673 -0.252759
        -0.338828 -2.16323 -0.990929
        1.1527 -1.54202 0.471531
        0.541307 -1.57331 -0.729298
        0.115093 -2.18791 1.30264
        0.53542 -0.971567 0.294283
        -0.758593 -1.29881 0.106314
        0.394958 -1.03968 0.245058
        0.199366 -1.31704 -0.164607
        0.135766 -0.347222 0.0596871
        -0.290469 -2.64754 0.36645
        0.36486 -2.9652 0.92955
        0.426062 -2.77229 0.794302
        -0.24651 -0.656881 -1.82383
        0.547111 -1.35245 -0.156945
        -0.84079 -1.30278 0.111489
        -0.0482251 0.167454 -1.00326
        0.50047 -0.413878 0.398178
        1.14802 -0.631397 1.57177
        -0.0538574 -2.29662 0.0778472
        0.210576 -1.70311 -1.29359
        0.623065 -1.53889 -0.130747
        -0.160792 -0.881586 1.39226
        0.417485 -1.64829 -0.388492
        -0.129853 -1.78695 -0.910411
        0.442285 -2.03032 -0.487517
        -0.825629 -0.895081 -0.230297
        0.139197 -1.80698 0.0573452
        0.715038 -1.98902 0.153485
        -0.667764 -1.98723 1.09574
        1.29012 -1.12718 -0.161789
        -0.126868 -3.48105 -0.991145
        -0.026928 -1.9752 -1.71985
        -0.08573 -2.37997 -0.338404
        -0.486804 -0.189968 0.455974
        1.0106 -1.33089 -0.394545
        -0.923478 -0.606807 0.719254
        0.117348 -1.18999 -0.613748
        0.854809 -0.794005 -0.254126
        -0.543719 -0.578102 0.818778
        0.498369 -0.792616 0.0480207
        -0.952024 -1.35578 -0.22678
        0.385627 -0.451069 -0.005522
        -0.678001 -1.65252 -0.860445
        -0.255912 -2.35181 0.373194
        -1.27742 -0.75346 0.324506
        -0.569748 -1.30914 0.23907
        -0.437866 -1.20097 0.961622
        -1.29104 -1.80036 0.354112
        1.14876 -0.96061 0.273136
        -0.584258 -0.142699 -0.232596
        -0.172814 -1.03332 0.619295
        0.00542249 0.401731 -0.560254
        -0.836724 -1.54311 -0.324227
        -0.0184705 -0.267726 -1.35856
        0.70771 -2.33396 0.28592
        -0.788678 -1.50025 -0.235622
        0.919453 -1.84665 -0.242438
        -0.0733305 -0.273639 0.108148
        -0.313348 -0.405214 -0.0290467
        -1.24458 -1.26155 -0.912519
        0.0886462 -1.89317 0.686101
        -0.121632 -1.00032 0.685808
        -0.40572 -1.789 -1.1629
        0.808418 -0.715411 -0.0392544
        0.0596513 -0.0812669 0.693196
        0.927763 -0.908942 1.00989
        -0.901951 -2.4074 -0.27152
        0.054217 -2.15831 -0.26028
        -0.262928 -2.50657 0.285079
        -0.505372 -1.46797 -0.794031
        0.231715 -0.695867 -0.557078
        -1.40423 -1.26741 -0.549264
        -0.304909 -2.45931 0.90099
        -0.980023 -1.94631 -0.0786681
        1.3865 -1.15004 1.53781
        -1.22098 -2.07376 -0.264656
        0.52905 -0.469739 0.648655
        0.0141276 -1.33776 0.0258768
        -0.462158 -1.15582 -0.732611
        0.708308 -1.58552 0.36768
        -1.73797 -0.515359 0.642575
        -0.782441 -0.669567 0.279289
        -1.1908 -0.520861 -0.0970641
        -0.47831 -1.62337 0.603738
        -0.0221328 -0.408443 1.90947
        -0.0682995 -0.491218 0.906765
        0.0593406 1.40956 -0.484865
        0.304532 -0.233639 1.15932
        0.608708 0.37179 -0.156211
        0.844265 0.92215 -0.684222
        0.748905 1.21386 -0.00917117
        0.972515 0.0176278 -0.192065
        0.453878 0.772372 0.140596
        -1.02678 0.739459 0.190718
        0.773663 1.04997 -0.115452
        0.525328 0.281998 -1.15358
        -0.910013 0.134899 -0.516685
        -1.61256 0.311509 -0.106419
        0.518527 1.22588 0.486653
        0.121862 0.656851 1.46084
        -0.242625 0.712797 0.973982
        0.0662066 1.12595 0.724486
        -0.95735 0.41054 0.783347
        0.510965 0.414268 0.142558
        0.231763 0.541866 -0.78321
        -0.487773 0.957615 -0.0783557
        -0.069744 1.09866 -0.396834
        -0.36967 1.47914 -0.814005
        0.486451 -0.360544 1.34831
        -1.60283 -0.529889 -0.0147612
        0.207251 0.84506 -1.03249
        -0.272008 1.12137 0.392056
        1.41445 0.708799 -0.398606
        1.21725 0.129085 -0.0459327
        -0.21902 2.05183 0.478843
        -0.204068 1.97935 -1.55698
        -0.602827 0.428401 0.404407
        -0.00290129 0.748739 0.899222
        0.963034 1.83128 0.0392852
        0.279242 1.28976 -0.482397
        -1.01229 0.736664 -0.0496206
        -0.517785 1.68758 0.671567
        -0.827885 2.43132 0.493232
        0.251221 1.61835 -0.403101
        -0.0478304 0.407456 -0.127119
        1.69673 1.7588 -0.55776
        -0.130298 0.917199 -0.703031
        0.263123 3.16873 -0.762949
        -0.794551 1.04053 -1.88676
        0.278009 1.46874 -0.0194375
        -0.13932 1.39339 0.474797
        1.00207 1.11525 0.100632
        0.471999 2.08292 -0.379495
        -0.896701 0.505753 0.725837
        -0.1764 0.396885 0.680553
        -0.55564 2.20165 0.0338079
        -1.28003 1.05314 0.132337
        1.4818 1.41975 0.505833
        -1.2409 1.54305 2.30869
        1.21928 2.02973 0.144392
        -0.720387 1.26916 -0.16878
        0.338576 0.384502 -0.0190424
        0.709067 1.64814 -0.216888
        1.1845 1.92874 0.0777714
        0.282018 2.13386 0.29516
        -0.347152 1.88558 0.73425
        0.142212 1.5071 -0.330333
        -0.437215 1.88477 0.579054
        0.650659 0.010441 -0.434183
        -0.259361 1.68551 -1.17107
        1.57139 0.350299 -0.477893
        0.116442 0.896979 -0.0508585
        1.08282 0.998814 -1.63541
        0.20197 1.7908 0.609976
        -0.268255 0.606427 -0.288812
        -1.14866 1.34505 0.0270933
        -0.552018 1.8705 -0.865422
        0.101455 -0.233781 0.415291
        -0.721658 2.12696 -0.770847
        -0.288118 1.78273 1.06651
        -0.797083 0.519962 2.2811
        -1.07887 1.08093 0.468588
        -0.0421229 1.77378 0.18614
        -0.265647 1.66081 -0.0679235
        1.58281 2.27332 -0.155778
        -1.15085 0.667572 1.8439
        -0.353169 1.81928 1.01087
        -0.394291 1.53131 -0.189118
        -0.864296 1.56296 1.06054
        -1.0971 1.14573 -0.403335
        -0.127688 2.53838 0.0504319
        -0.0318292 1.48 0.880684
        -0.286084 0.660723 0.735069
        -0.477473 0.913621 0.0972675
        0.217235 2.08933 0.191808
        1.18477 0.409228 0.429092
        -0.0129538 2.5332 -0.911187
        -0.336266 1.19953 0.485276
        -0.232655 1.7561 -0.0195388
        -0.235045 2.93608 -0.315605
        0.583774 1.97573 -0.756649
        -0.643817 0.838795 -0.69615
        -1.31192 1.33968 -0.0722272
        -0.301645 1.88158 0.415499
        0.543688 1.3475 1.0058
        0.919393 -0.045909 -0.445436
        -0.741002 0.811054 0.0497699
        1.37981 2.734 -0.310607
        0.655877 1.37383 -0.659864
        1.1969 1.70748 0.509
        1.05516 1.36888 0.860529
        0.270564 1.539 0.719727
        0.0302637 1.58722 -1.46831
        -0.0799343 0.56486 1.43132
        1.02116 2.16996 0.0797146
        -0.306548 0.0927722 -0.444825
        -1.52531 0.830968 0.169646
        0.0807694 1.55962 -0.558392
        -0.268104 1.19149 0.321314
        -0.799751 1.37078 0.929833
        -1.28608 1.17887 -1.33937
        0.164639 2.3149 0.392937
        0.0683831 1.07678 0.440967
        -1.85968 1.72751 -0.611141
        0.713948 2.15125 -0.366804
        0.641173 1.37314 0.0365145
        0.861403 2.89057 1.02612
        0.497256 1.48903 0.431812
        0.525106 2.98478 -0.394988
        -0.199542 0.491196 1.05131
        0.174907 0.865558 0.697718
        0.743409 1.54991 -0.836803
        -0.21808 1.56755 -0.00158497
        -0.35677 0.868812 -0.441245
        0.173866 1.1689 1.28702
        -0.331986 0.586005 0.327406
        0.135588 0.703223 -1.09897
        0.43069 1.3634 -0.229623
        -0.699789 1.81262 0.525381
        0.458898 0.251851 -1.071
        -0.480975 1.89283 -0.11663
        1.04391 0.858205 0.728696
        -0.0903893 -0.658486 1.44477
        -1.98682 0.21564 -0.875937
        -0.615209 1.01722 0.473522
        -0.455347 1.30466 1.64026
        -0.078005 1.33797 -0.785751
        -0.0932597 1.11469 -1.4698
        -1.71956 1.73333 -1.19909
        1.68674 1.90888 0.690401
        -0.610397 0.657091 0.406968
        0.854294 0.696617 0.542831
        -0.742984 1.40286 -0.742321
        -1.72644 1.9022 0.182606
        -1.45976 0.0991806 0.0756982
        1.98565 0.931919 -0.874464
        0.889132 0.0619272 0.891187
        -0.112259 1.53732 0.997126
        0.621772 2.46266 0.00384313
        -0.319375 1.31816 -1.4075
        0.0673038 1.97641 0.0178255
        -0.139317 1.25067 0.768404
        -0.242512 1.83645 -1.60532
        1.26239 2.16426 -0.178321
        0.0239492 0.0707766 0.145173
        -0.0308934 0.365637 0.379074
        -0.484844 0.775861 -0.67623
        0.0535339 0.555118 -1.10656
        -0.250097 0.795114 -0.147083
        0.342645 2.88178 0.031399
        1.52944 0.263147 0.129775
        -1.15205 1.4706 0.160276
        -0.363523 1.44413 -0.267944
        0.649069 1.42761 0.602899
        -0.307933 -1.55718 0.527493
        -1.04522 -3.10496 0.246235
        -0.56292 -2.04867 0.823011
        0.0498591 -1.25248 -0.0279996
        -0.22133 -1.88985 0.69323
        0.111239 -0.628315 0.633683
        -0.408894 -0.680599 -1.43478
        -1.0932 -0.614798 0.951405
        0.551492 -1.90968 -0.603011
        0.00744722 -1.26518 -0.757308
        0.160713 -1.93178 -0.598026
        -0.116488 -2.37912 0.507124
        0.176281 -1.0881 1.75831
        0.0794216 -2.42952 0.27646
        0.686289 -0.836526 1.14538
        0.474547 -1.80218 0.143193
        0.043051 -1.28247 0.406113
        -0.643028 -1.80052 -0.747991
        -0.271461 -0.569376 -0.523698
        -1.1814 -2.36824 0.855428
        0.992774 -2.08696 -0.220433
        0.418699 -1.67675 0.559676
        0.108993 -1.33836 -0.55455
        0.559393 -2.73277 1.82075
        0.727615 -1.14479 0.909079
        1.50025 -1.36441 -0.568254
        0.219448 -0.265854 -0.409238
        -0.3999 -0.667896 -0.500886
        -0.427062 -1.94029 -0.842201
        0.0526348 -1.64113 -0.161535
        1.52042 -1.03215 0.192386
        -0.3011 -0.69145 -0.0525757
        1.57098 -2.22427 0.869104
        -0.136814 -0.757009 0.268316
        0.0376464 -1.1392 0.500175
        -1.20883 -2.82621 0.567111
        0.259534 -0.971946 -1.03198
        -0.271973 -0.817738 -1.36913
        0.45934 -0.669319 -0.461127
        -0.686205 -1.1984 0.129563
        0.167355 -1.65373 1.47478
        -0.348799 -1.42339 0.184091
        0.297029 -1.168 -0.578298
        -0.12643 -1.86909 0.523655
        -0.112436 -0.463948 1.33525
        -0.563148 -1.06695 0.131841
        -0.554809 -2.12269 -0.145983
        -1.21424 -1.97457 -0.844744
        1.6102 -1.80367 0.341897
        1.18082 -2.05721 -0.381314
        -0.877784 -1.71831 0.433717
        -1.07188 -0.857363 0.409436
        -1.58756 -0.238731 0.237052
        -0.637794 -2.47911 -0.251278
        -1.20114 -0.882716 -1.21202
        0.596401 -1.68681 -0.88081
        -0.934883 -1.56307 0.700479
        -0.0631481 -0.120687 -0.317934
        1.5585 -0.625142 0.278231
        -0.79235 -2.19801 -0.546484
        -0.753775 -1.42129 0.277119
        -0.113636 -2.43192 0.276402
        -0.578984 -0.500004 0.217169
        0.999371 -1.717 -0.910541
        0.66274 -1.85051 0.971332
        -0.0301213 0.173652 0.613172
        0.370132 -1.63608 0.976107
        -0.383135 -0.861588 -0.902576
        0.795684 -0.576154 0.534664
        1.05664 -1.09343 0.290203
        0.0420645 -0.72372 -0.0331339
        -0.635526 -0.742679 0.869577
        1.12132 -1.46898 -0.886386
        1.40204 -2.25336 -1.01997
        0.380472 -1.94061 -0.662235
        -1.40071 -0.390925 -0.822921
        -0.880313 -2.84357 0.732254
        0.196876 0.26326 0.14383
        0.676018 -1.96285 -0.877332
        -1.157 -2.09335 -0.488531
        -0.860304 -1.76185 0.468408
        -0.932453 0.485072 0.408177
        1.00955 -0.623999 0.616176
        0.554957 -1.45241 0.445009
        -0.366164 -1.4849 0.238321
        -0.0495397 -0.739407 0.287417
        -0.904448 -0.403023 0.220078
        0.239179 -1.52926 0.684343
        0.212399 -0.540219 -0.321983
        0.779915 -2.10437 -0.790349
        -1.64214 -0.97246 0.940417
        1.23585 -2.17243 -1.37601
        -0.893171 -0.64515 0.299049
        0.453102 -0.396446 -0.34082
        -0.97262 -2.68843 0.409417
        0.623543 -1.27353 0.890338
        0.166256 -0.340005 0.218531
        -0.000258639 -2.32221 -1.51559
        -0.580946 -2.27892 -0.812399
        0.48449 -0.397293 -0.224414
        -0.119378 -0.255551 0.550649
        -0.530668 -1.35618 1.3128
        -0.708955 -1.1803 -0.611177
        0.899664 -0.795609 0.255703
        0.871605 -0.370228 0.410375
        -0.110981 -2.11982 -0.802131