<?xml version="1.0" encoding="UTF-8" standalone="no" ?>
<VTKFile byte_order="LittleEndian" type="UnstructuredGrid" version="0.1">
  <UnstructuredGrid>
    <Piece NumberOfCells="0" NumberOfPoints="1764">
      <PointData>
        <DataArray Name="velocities" NumberOfComponents="3" format="ascii" type="Float32">
        -1.04377 -0.410663 -0.318431
        0.752247 -0.968545 -0.876172
        -0.505422 -1.08252 0.738341
        0.288647 -0.983046 0.183273
        0.124073 -0.683884 0.0722745
        -0.57372 -0.563928 -0.416539
        0.111356 -1.49577 -0.574597
        1.06779 -3.08381 1.34464
        0.416465 -1.50399 -0.18238
        0.323092 -0.476667 0.841715
        0.415269 0.501272 -0.234223
        -0.202985 -0.361562 -0.408884
        0.541669 -2.19556 -1.64862
        -0.186234 -1.89717 -0.0912791
        0.134407 -0.416815 0.694138
        0.349901 -2.088 -0.599452
        0.554614 -2.81196 1.61141
        0.920645 -1.22806 0.587467
        0.559581 -2.03976 -0.689181
        0.569952 -0.769351 -0.508698
        0.586823 -1.47219 0.288298
        -0.401664 -0.0093802 -0.217173
        -0.270355 -1.80515 -1.57192
        -1.36613 -1.24526 0.263085
        0.217365 -1.30204 -0.0243285
        0.464777 -1.49864 0.723497
        -0.306949 -0.432569 0.141797
        -0.971768 -1.15496 -0.724502
        0.992296 -1.14234 1.27674
        0.0898849 -0.970422 0.00360655
        0.392994 -0.95953 -0.864941
        0.123636 -1.32674 -0.0717947
        -0.068433 -2.6532 -1.08075
        -0.280731 -0.594535 -0.724154
        0.278318 -0.712165 -0.606836
        -0.886186 -0.855002 0.167799
        0.254998 -1.01446 -0.131016
        0.885222 0.216739 -0.0423175
        0.476076 -1.5125 -0.0743014
        -0.0838037 -1.11941 -0.521951
        -0.440572 0.0509184 1.10817
        -0.626256 -1.46113 0.309359
        -1.1743 -0.688613 -0.496876
        -1.81167 -0.156512 2.02597
        -0.258922 -1.31693 -0.868348
        -0.581716 -1.50146 -0.205762
        -1.40728 -2.08419 0.110364
        -2.47178 -1.51976 -0.59398
        0.603046 -1.92109 0.532941
        0.627994 -1.10434 -0.623418
        0.336524 -0.786032 -0.241496
        -0.303712 -0.997791 -0.346667
        0.321875 -0.494174 -0.00603151
        -0.199109 -1.02971 -0.540664
        -1.36218 -1.17374 0.511565
        -1.1357 -1.2517 -0.329465
        0.460892 -0.762232 0.506232
        -0.159328 -1.99644 -0.129097
        1.52755 -1.11529 -0.0581955
        1.2929 -1.60387 0.201127
        -0.0267527 -0.766097 -1.39239
        -0.122275 -0.626033 -1.75326
        -0.215562 -0.159961 0.0833656
        -0.658543 -0.819534 0.490702
        -0.0276117 -0.182898 0.50668
        0.3349 -3.12485 -0.516161
        0.0490044 -1.90962 -0.967432
        -0.557556 -1.40584 -0.970115
        0.131047 -1.04244 -0.735771
        0.490501 -1.41645 1.10458
        -1.43124 -0.673425 -0.673182
        -0.0450139 -1.68345 -0.592241
        0.370567 -1.43034 0.760951
        -1.39154 -0.366591 -0.932884
        -0.552944 -1.53045 0.7371
        0.535184 -2.78065 -0.401569
        0.863483 -1.17952 -1.01998
        -0.754568 -1.69342 -0.112848
        1.32364 -1.34744 0.310588
        -0.155673 -0.614888 -0.622188
        1.55324 -1.62065 -0.118714
        0.10558 -0.76316 0.582402
        -0.384815 -0.884557 0.271202
        -0.513251 -0.752461 0.836377
        0.0178341 -2.47905 -0.136418
        0.789343 -0.16472 -0.731122
        0.388739 -1.20291 0.0524755
        -1.38651 -0.956756 -0.848252
        0.148107 -2.11746 -0.534032
        0.668212 -2.25347 -0.315855
        -1.84769 -0.391387 -0.555024
        0.72049 -0.737126 0.375112
        0.859548 -0.0435055 1.02478
        -0.125723 -2.1084 0.04446
        0.336756 -0.36918 -0.316589
        -0.0510571 -1.72246 -1.15763
        0.194117 -0.76524 -0.498251
        0.493775 -0.621868 0.722392
        1.32577 -1.77523 0.576144
        0.0918493 -2.12561 -0.920987
        0.177544 -1.1359 -1.73189
        0.512182 -1.47615 -0.566783
        0.234592 -2.43693 0.590179
        -0.136991 -1.53734 0.335318
        -0.70891 -1.16554 -0.254166
        0.809787 -1.44648 0.364324
        -1.1811 -0.709063 1.21103
        -0.426372 -2.29207 -0.713931
        -0.290238 -1.7689 0.0162974
        -0.0739785 -1.20083 -0.0616069
        1.95369 -0.432533 0.129158
        0.627576 -1.65394 0.428066
        0.140484 -1.32609 0.484715
        0.790454 -0.481901 -0.452288
        -1.0122 -1.81513 0.462394
        0.171464 -0.887068 -1.35179
        -0.290014 -1.60468 0.345479
        -0.428356 0.512454 -0.931164
        1.1771 -0.875623 -0.159378
        -0.960791 -2.28513 0.543385
        -1.34837 -1.36755 -0.938457
        0.596029 -2.23972 0.34378
        -0.229501 -1.5305 0.578199
        -0.025087 -2.00856 0.248999
        -1.02446 -2.26216 0.11854
        -0.464549 -0.422648 -1.67942
        0.232785 -0.791693 -0.982662
        0.0633037 -1.11991 -1.44041
        -0.588866 -1.86975 1.36278
        1.09751 -1.354 -0.652204
        0.829343 -1.93434 -0.386235
        0.0667589 -2.57974 -0.477403
        -0.422492 -1.19923 0.0449414
        0.370171 -2.73672 -1.13806
        -0.775469 -1.20272 0.224536
        -0.893832 -1.19501 -0.806517
        0.546508 -2.07083 0.677455
        -0.713235 -1.21497 0.294673
        0.151661 -1.0398 -0.00742455
        0.466824 -1.58639 0.320451
        1.12753 -1.75617 -0.534006
        -0.418684 -1.94957 0.299925
        -0.13745 -0.0649407 -1.32505
        0.712481 -0.936845 0.938213
        -0.0297856 -0.66842 -0.222897
        0.339184 -0.903789 -1.67218
        -1.2253 0.196524 -0.0498534
        -1.0712 -1.0872 0.228497
        -1.71234 0.242203 -0.505203
        0.454775 -1.45439 -0.784749
        0.140127 -0.751621 -0.178196
        -0.219145 -1.52634 -0.744773
        0.784145 -1.27024 0.706794
        0.294382 -0.783667 0.299164
        -0.553122 -0.565529 -1.79447
        -0.315243 -0.515063 0.1513
        -0.180604 0.52094 0.304115
        0.762226 0.898913 -1.05992
        -0.283727 -2.32056 0.980188
        -1.03566 -0.787277 1.7924
        -0.0814362 -1.75198 0.568113
        -0.27077 -1.33375 1.29161
        0.19849 -1.62796 -0.743272
        -0.72582 -1.66157 0.277094
        -1.35772 -1.19794 -1.26591
        0.560192 -1.57088 0.70926
        0.30294 -0.580512 -0.315399
        0.706923 -1.90971 -0.752354
        -0.202308 0.313401 0.0593111
        -0.331385 -1.97523 1.69485
        0.222007 -0.246358 -0.381774
        -0.515093 -1.65728 1.02859
        1.26924 -1.04718 -0.833635
        -1.37228 -0.0113056 -0.0296556
        0.798741 -0.147426 0.530172
        -1.60633 -0.361506 0.690981
        0.0644554 -0.86839 0.312366
        -1.95925 -1.04083 0.691425
        0.642798 -0.159363 1.22532
        -0.960413 -0.377498 0.213201
        -0.690556 -1.68887 0.462183
        0.351932 -0.815306 0.571246
        0.495118 -0.231591 0.894431
        0.530211 -1.30809 0.207667
        0.380758 -0.575 -0.337427
        -0.401733 1.26849 -0.0129053
        0.57063 1.69363 0.634059
        -0.928672 0.420559 -0.492218
        -0.622338 1.11188 -0.285407
        0.056229 0.845689 0.638492
        -0.273699 0.51245 -0.327286
        -0.69478 0.316892 0.39298
        0.076473 -0.219261 0.121135
        0.998416 0.288139 0.555534
        0.33608 0.47402 0.810402
        -1.03675 -0.472899 0.555045
        -0.592242 1.68324 0.00736707
        0.972383 0.350247 -0.230027
        -0.705833 0.236563 0.215908
        -0.685683 1.68624 0.230234
        0.184154 0.530499 -0.655596
        0.638581 2.262 0.783264
        0.22719 1.97907 0.543034
        -0.389931 1.36631 -0.319526
        0.391498 0.526352 1.5402
        0.182347 0.370559 -0.492805
        -0.322262 1.77504 0.334179
        0.109345 0.554065 0.816158
        0.252001 1.08603 0.397731
        -0.524671 -0.442256 -0.750786
        -0.997116 1.25213 0.264879
        0.7673 1.93487 -0.769732
        -0.154389 1.22758 -1.87638
        0.00263816 0.113032 -0.957524
        0.17456 1.77946 -0.560605
        0.586323 1.33141 0.190379
        0.321329 3.36486 1.13524
        0.0713994 1.31608 -0.832843
        -0.174102 1.77057 0.389325
        -1.46005 1.88681 -0.3811
        -0.642203 2.57717 0.140725
        0.406003 2.45246 0.734956
        -0.127199 0.949665 -0.352098
        0.213277 0.91335 -0.531811
        0.577578 3.56961 -0.126582
        -0.509461 0.00141136 -0.927192
        1.00171 0.266408 0.917337
        -0.106962 1.8103 0.337425
        0.207542 1.24818 0.652124
        0.110107 0.913552 -0.0444764
        0.0227279 2.01968 -1.25191
        1.25562 0.649965 0.914875
        0.00831435 1.27758 0.0551484
        -0.301778 0.893421 -1.0424
        -1.79076 1.25054 -0.653884
        -0.835522 1.0603 0.731454
        -0.128445 0.0615066 0.519127
        0.883991 2.53276 -0.0326885
        -1.24145 1.51678 -0.14898
        -0.529895 0.424102 0.851467
        -0.62298 1.02911 -0.873336
        -0.431899 0.782698 -0.0526191
        -0.351596 2.47048 -0.507889
        0.393276 0.653101 0.217138
        0.608714 2.89332 0.353527
        0.250371 1.81074 0.391791
        -0.0622318 1.46129 -0.694024
        0.0351347 2.48331 -1.15963
        -0.97704 2.53036 -0.00910331
        -0.11514 3.04589 0.0161491
        1.11516 0.297657 -0.958625
        -0.634465 1.62711 0.201507
        0.391439 1.50608 -0.841273
        -0.287654 0.91044 -0.807622
        0.520107 1.33526 -0.0576716
        -0.046319 0.876743 -0.580656
        -1.77375 1.03386 0.0428348
        -0.43793 0.792181 0.0514888
        -0.250178 0.888884 0.105463
        0.167276 0.630515 -0.476051
        -0.420506 2.5747 -0.369874
        0.640015 1.74166 0.19164
        0.996307 -0.139501 0.863767
        0.63465 1.12837 0.202282
        0.243733 0.572411 -0.953822
        1.19824 1.04542 0.0173028
        -0.501803 2.01964 0.573237
        -0.155379 0.849596 0.453277
        -1.26379 3.26613 -1.05645
        -1.24691 0.886416 0.201408
        -1.40608 1.42765 -0.259415
        -0.685299 2.41357 0.329551
        0.0213384 -0.0160502 0.155827
        -0.340358 1.4826 -0.271886
        -0.287575 2.00649 -0.395575
        -0.674667 1.29734 -0.11506
        -1.38243 0.650828 0.502129
        0.431905 0.909995 0.716603
        1.02773 2.9838 -1.25179
        0.750491 1.21778 0.411561
        -0.338656 1.34284 0.0609432
        -0.414513 1.02424 0.772034
        -0.409553 1.26864 -0.704249
        1.73826 0.156829 -0.310246
        0.671262 1.48478 -0.640249
        0.802671 1.36967 0.33721
        0.411045 0.286602 0.455521
        -0.814077 1.27987 1.1334
        -1.29482 0.380854 -0.0537838
        0.427232 0.182016 0.20508
        -0.528251 1.38102 -0.870075
        0.453368 1.50294 0.585573
        0.207493 0.471978 -0.269457
        0.177321 2.16099 -0.339527
        -0.265066 1.19926 -1.28019
        0.0891101 2.20532 -0.150567
        0.897334 0.551179 0.0626775
        -0.735588 0.0988403 0.127639
        -0.0885134 1.57692 -0.679197
        1.68968 1.56349 -0.19961
        -0.41399 -0.0560557 -0.728035
        0.755677 2.2208 0.721099
        -0.558328 -0.0424047 0.933504
        0.0461919 1.46055 1.01045
        -0.770975 1.76204 -0.982515
        0.77161 1.56751 0.190149
        0.763223 1.96904 -0.120001
        0.0948617 0.977141 0.607325
        -0.22998 2.03578 0.11648
        0.17568 0.457551 -0.719807
        -0.94472 1.20536 -1.02023
        0.0715809 0.945081 -0.589939
        0.256277 0.242287 -0.10932
        0.821385 1.51538 0.0208447
        0.0100223 2.47353 -0.520276
        -0.35578 -0.296796 -0.126699
        -0.0448771 1.98276 0.716125
        -0.0677097 1.36163 -0.505983
        -0.766995 1.60495 -1.16672
        -0.0239552 1.85632 0.298449
        -0.44045 1.09126 -0.484326
        0.224191 1.7172 0.145634
        0.1308 1.54585 -0.190278
        0.538102 1.83732 0.128865
        1.04592 1.2729 -1.15743
        0.921629 2.35679 -0.991463
        0.708527 1.10126 0.259723
        0.500676 2.69522 -0.503357
        -0.664769 2.07465 -0.903509
        0.268092 1.27951 -0.0320571
        -0.702039 3.31471 0.574567
        -0.696497 2.62978 0.742641
        0.185268 0.52333 -0.990371
        0.461931 1.68278 -0.514044
        -0.956135 0.376726 -1.04108
        -0.0419099 1.32391 1.33176
        0.160699 1.45113 -0.27768
        0.0367907 0.584166 -0.915986
        -0.504079 1.04682 -0.595671
        0.161189 0.646353 0.608483
        1.1762 0.769615 0.865422
        0.240404 1.41845 1.30383
        0.894804 0.904107 0.0304384
        1.04113 2.10847 0.0536899
        -0.766496 1.38516 -0.497255
        -1.45174 1.05796 0.160857
        0.177555 1.12631 0.27264
        -2.10783 1.42969 -0.118315
        -0.0252986 2.16911 -1.22213
        -0.487458 1.73802 0.555456
        0.0856486 2.29129 -1.31163
        -0.449945 1.90769 -0.331558
        -0.756747 0.0803571 -0.202216
        0.0704922 1.43781 0.378565
        -0.807898 0.752429 -0.170463
        -0.23269 1.13617 0.294619
        0.416851 3.05394 -0.646192
        -0.586523 1.92467 0.32016
        -0.0444225 0.406452 -0.586423
        1.00907 1.73668 -0.0157086
        -1.00437 1.35053 0.566198
        0.466619 1.9005 0.728374
        0.496279 1.27473 0.328736
        0.823233 1.28789 -0.650736
        -0.440404 0.463291 0.507975
        0.440262 0.575457 0.191951
        -0.456691 1.11412 -0.584139
        -0.756831 -0.425147 1.06051
        -0.72716 1.22273 -0.672587
        -0.866912 -0.600944 -0.668021
        -0.378093 -1.8504 0.873978
        -0.0919069 -1.67295 0.707902
        -0.0900411 -2.98245 0.464858
        0.688318 -0.456108 -0.807667
        0.791802 -1.19919 0.122927
        0.961593 0.257933 0.180021
        -0.357508 -1.77754 0.480405
        -0.822482 -1.7145 -0.00829712
        0.431599 -0.54933 0.992735
        0.171619 -0.527148 0.196659
        -1.28963 -0.653973 -0.162501
        -0.224212 -0.500652 0.32903
        -1.28581 -2.53308 0.30232
        -0.743042 -1.56185 0.114106
        -0.362658 -1.14331 -0.344589
        -0.447006 -1.74016 0.0880735
        0.2975 -1.08298 0.304262
        -0.112114 -1.89523 0.0242766
        1.1507 -2.03503 0.670559
        -0.340944 -0.694492 -0.0523934
        -1.15911 -1.34779 -0.0636591
        1.59622 -1.21625 -1.11834
        -0.271107 -0.85099 1.33008
        -0.622922 -0.798643 -1.36108
        -0.333715 0.1491 0.28624
        0.495119 -0.860192 -0.333552
        1.02022 -0.320087 -0.345891
        0.0885644 -1.20409 -0.0875721
        1.24159 0.413606 -1.24996
        -0.785782 -0.716424 -1.15446
        0.249681 -0.909415 1.14047
        0.0581146 -2.63675 -0.648408
        0.637425 -1.10873 -0.437795
        0.682503 -1.31949 0.0574737
        0.448341 -2.27004 0.985521
        0.713998 -1.87768 0.325891
        0.161818 -1.27154 0.837187
        -0.101823 -1.43485 -0.301085
        0.0352598 -2.27452 -0.27984
        0.596358 -1.16311 -0.378342
        -1.10068 -2.09432 -0.145343
        0.302901 -2.20413 0.0586594
        -0.518251 -2.08139 0.122119
        0.661039 -1.72213 0.689364
        -0.501604 -1.06813 0.715297
        0.240367 -1.50888 0.365274
        -0.319498 -1.81377 0.455612
        -0.0298539 -1.76423 0.952694
        -1.04785 -2.61483 0.226365
        -0.249258 -0.483077 -0.98901
        0.341451 -0.568239 -0.159666
        1.22187 -0.841077 -0.264291
        0.581299 -0.732523 0.162658
        -0.0871026 -1.42539 0.277694
        0.863592 -1.69485 -0.338733
        -0.823847 -0.806512 -0.228558
        0.297277 -1.41355 -0.00492093
        -0.691272 -0.567867 0.574478
        0.490795 -1.30218 0.0438716
        -0.412916 -1.02932 -1.41746
        -0.734912 -1.86939 -1.31843
        2.01717 -2.61878 -0.394698
        0.892649 0.183126 -1.18175
        0.541697 -2.43284 -0.652266
        -0.0167555 -2.07225 0.386124
        -0.122916 -0.811157 -0.66229
        0.200507 -0.623763 1.93598
        0.211452 -1.72792 -0.0960906
        1.1561 -2.52134 0.027316
        0.0237579 -0.866627 0.782869
        -0.082463 -1.96494 -0.552605
        0.246689 -1.32752 -0.686916
        0.91325 -1.7612 -1.28793
        -0.0521773 -1.5565 2.34114
        0.243805 -1.06848 -0.646297
        0.346236 -1.19392 -0.0853441
        0.135468 -1.30435 1.00709
        -0.25535 -0.407207 0.698811
        0.0565523 0.204375 -0.749312
        0.118183 -1.80138 -1.46901
        0.692372 -1.93174 -0.308545
        -0.212856 -1.44385 -0.299168
        -0.747478 -1.70873 -0.0198641
        -0.344649 -1.49516 1.1804
        0.126434 -0.584323 0.552074
        0.306376 -0.920628 0.58536
        0.93263 -1.21899 -0.474214
        -0.122992 -1.47986 -0.869523
        0.610868 -0.477227 -0.612417
        -0.0382749 -1.17153 -1.09486
        0.582631 -1.77468 -0.00294113
        0.39415 -2.27543 0.859839
        0.187357 -2.09697 -0.34984
        0.689795 -0.33523 -0.910863
        -1.19713 -0.121088 -0.351752
        1.05223 -1.12527 0.539115
        -1.04091 -2.3636 0.463879
        0.58529 -0.379364 0.415496
        -1.77091 -0.210825 0.0194587
        -0.93251 -1.77896 -0.0117718
        -0.136744 -0.573121 -0.636466
        0.236177 -1.85137 0.587036
        -0.0941239 -1.04724 0.3816
        0.216704 -2.27846 0.128247
        -0.225542 -0.776013 -0.633565
        0.53589 -0.938339 -0.4175
        0.49153 -2.66021 0.113532
        0.597403 -0.135653 0.623657
        0.141605 -1.4792 0.471344
        -1.79753 -0.446466 0.404863
        -0.0894178 -2.39092 -0.865559
        -0.201575 -1.93781 -1.40847
        0.542822 -1.45312 -0.827002
        -1.15016 -0.369538 0.213848
        0.660972 -1.32031 0.023355
        -0.495622 -1.67155 -1.07437
        -1.17467 -0.420644 0.371178
        -1.40332 -0.16067 -1.2709
        0.208573 -1.93907 -0.178763
        -0.776437 -2.44861 0.328745
        1.5763 -1.23654 0.945778
        0.904714 -2.70712 0.690516
        -0.162046 -2.1785 0.185549
        0.641889 -2.09364 0.751538
        0.666667 -2.91608 1.18994
        -0.673094 -1.37726 -0.0194832
        0.472772 0.466938 1.11442
        -0.456797 -2.39336 0.726968
        0.405634 -0.670478 -0.367043
        0.0655309 -2.49966 1.06403
        0.190841 -1.32704 0.304354
        0.86595 -2.00272 -0.348863
        0.585793 -2.74004 0.485494
        -1.31958 -1.60667 -0.737358
        0.525333 -0.513278 -0.802932
        -0.54519 -1.29768 0.990538
        0.689377 -0.249554 -1.65116
        -0.0866624 -2.54269 0.411876
        0.966308 -1.55523 -0.353269
        -0.00749297 -1.9216 -0.303908
        -0.714878 -0.501409 -1.05205
        1.49691 -0.695083 1.35038
        0.477437 -0.00219695 0.745159
        0.468629 -1.74518 -1.19658
        -0.114583 -1.69966 0.668267
        0.109615 -0.0263015 -0.505135
        -0.681014 -0.194694 0.52813
        -0.0037734 0.301561 -1.01229
        -0.793969 -1.39336 -0.0467841
        0.560704 -0.960505 0.316817
        0.84542 -0.32069 0.595706
        0.752434 -0.0579629 -0.669067
        -0.808911 -0.812765 -0.588044
        -0.299221 -0.533456 -2.19857
        -0.780491 -0.62207 -0.293698
        -0.0619857 -1.62658 0.604389
        0.376631 -2.26287 -0.223767
        0.458495 -1.06784 -0.857001
        -1.23704 -1.85862 -0.405669
        0.602979 -0.85826 0.188001
        -0.11428 -0.802799 -0.167731
        -0.518657 -1.33914 0.32722
        -0.60268 -1.97621 0.561836
        0.808821 -2.53545 -0.824649
        1.04876 -1.64523 0.590654
        0.313205 -2.5111 -0.512355
        -0.215624 -0.973899 -2.06578
        1.29187 -1.98224 0.284022
        0.788959 -2.14488 -0.526165
        -0.825531 -1.05515 -1.17015
        -1.1552 -0.490881 -0.784626
        -0.88441 -1.83092 -0.307743
        -0.282227 0.0251248 0.774594
        -0.869004 -0.738788 0.905185
        -1.56344 -0.992001 0.839367
        -0.024534 -0.417021 -0.769061
        -0.951251 -1.6527 -0.473098
        -1.11972 -0.252613 -0.282543
        -0.441359 -2.15953 -0.0246686
        -0.0363188 -1.70754 -0.520726
        -0.886104 0.395667 0.683172
        1.11194 -0.369741 1.20442
        -0.237073 -0.671757 0.879985
        -1.00536 0.551024 0.359358
        1.18395 -1.96795 -1.67533
        -0.777079 -1.47881 0.214158
        -0.377546 -0.903709 1.28215
        0.0676889 -2.31541 -1.27703
        0.751724 -1.56008 0.571361
        -0.444063 -1.39988 -0.50398
        0.218805 -1.99105 -0.877756
        0.95328 -0.379301 0.0948125
        -0.867788 -1.34915 -0.876981
        0.0735215 -2.21782 -0.104042
        -1.51467 0.253208 0.23886
        -0.467831 -0.36745 -0.414019
        0.340275 -0.599457 -1.89162
        0.150213 -1.88375 -1.4081
        2.05328 0.856166 0.0981549
        -1.05137 -1.11753 -0.387285
        -1.079 0.313179 0.249499
        0.195744 -0.0556152 1.52579
        -1.8131 -0.950048 -0.903546
        -1.82609 0.674767 -0.0153555
        1.59725 0.606316 0.554007
        0.658206 0.385181 0.151273
        1.47195 1.73872 -0.00185917
        0.487181 0.8639 -0.5507
        -0.600629 0.844038 -1.00393
        -0.390388 1.31991 0.374194
        0.879073 1.3038 -0.437254
        -0.303688 0.763081 1.12199
        1.72219 -0.177672 -0.509782
        0.0819833 1.26569 -0.663018
        1.58225 -0.0712862 -0.0691585
        0.191326 0.261114 0.227918
        -0.361958 0.476023 -0.59346
        -0.259257 0.364864 1.15398
        0.555919 0.840155 0.295815
        0.543098 -0.261835 -0.816533
        0.192699 -0.545196 -0.243791
        0.0805083 0.612483 -0.0983431
        -0.677463 1.29545 -0.753092
        -0.78691 0.926783 1.57307
        -0.240426 0.698366 0.349852
        0.455173 0.439267 0.412062
        -1.1633 -0.313559 0.428378
        -0.00915821 0.882726 0.203509
        0.201962 -0.234282 0.51092
        0.668017 1.2562 1.15218
        0.025602 1.47573 0.725813
        -1.45077 1.8917 -0.938249
        0.0310596 1.30533 0.532951
        -0.299213 2.53454 0.328675
        0.988509 0.971125 0.250834
        0.681566 1.39658 0.72165
        -0.0609654 1.59309 1.49215
        -0.464063 1.18258 -0.249331
        -1.1891 0.662765 -0.826557
        -1.36195 0.428328 -0.934307
        -1.0851 1.09706 -0.566328
        -1.12207 1.14784 -0.466754
        -0.788525 1.96036 0.00939511
        -0.268576 1.43067 0.805903
        -0.909167 2.34431 0.510193
        0.0670009 1.70762 -0.713615
        1.11891 0.184663 -0.91296
        0.949074 1.59095 -0.678018
        0.07017 0.667982 1.20185
        -1.18527 0.983522 0.284693
        -0.0448863 0.883283 -1.2605
        1.17607 1.36464 -0.554361
        0.0353257 0.646952 0.603806
        -0.183372 2.37464 -0.429395
        0.250443 1.68709 -0.326776
        -0.112694 0.108085 -0.0761173
        -0.546931 2.692 0.274695
        -0.987788 2.48775 -0.0511082
        1.0322 0.963575 -0.363154
        -0.142121 2.94694 -0.275319
        -0.152526 0.298815 0.883643
        0.695664 0.776865 -0.235137
        -0.750517 0.790583 0.248393
        -0.02388 0.258942 -0.239767
        0.507008 2.04819 -0.352631
        0.185054 1.48357 -1.35901
        1.53744 1.13807 0.237571
        0.394133 1.84824 0.134069
        -0.555179 1.62715 -0.675015
        0.170999 3.49536 -0.0759855
        -0.700647 2.35409 0.864022
        0.1664 -0.266735 -1.08183
        -0.701525 1.19389 0.13213
        0.656608 1.28893 1.16024
        0.855865 1.44208 -0.689912
        0.100898 1.0499 -0.221805
        0.282646 0.781436 1.20801
        0.75401 1.11641 0.030177
        -0.656303 1.71122 0.660901
        -0.53815 2.41177 0.928331
        -0.347879 0.412436 -0.499139
        -0.106441 2.22323 -0.451526
        -0.546896 1.82654 0.202304
        -0.260249 1.90837 -0.167228
        0.559908 1.27148 0.598771
        -0.100116 0.829553 -0.372914
        0.24997 1.38901 0.233987
        0.239365 2.0385 0.731091
        0.0818865 0.810765 -0.109341
        -0.479387 0.987701 0.190111
        -0.844753 0.828599 1.02046
        -0.339665 0.182732 -0.794272
        0.406014 0.198101 -1.40329
        1.02294 0.584049 0.166865
        -0.379086 2.32176 1.04668
        0.775627 0.939621 0.206766
        0.263065 0.955742 -0.0724862
        -0.721488 1.27943 -1.19591
        -0.712737 1.41622 -1.08992
        0.393277 3.38472 1.26133
        0.0216742 1.13241 0.764364
        0.144795 0.236984 -0.541939
        0.306465 1.91665 0.847113
        0.169706 0.390188 -0.0926487
        -0.963815 1.77743 0.347141
        -0.113261 2.58303 0.58491
        0.850216 0.138617 -0.505116
        -0.494454 1.2431 -0.586475
        -1.81371 1.10473 0.779706
        -2.56101 1.4334 -1.15086
        -0.412641 0.711917 -0.805573
        -0.289513 0.778211 0.769377
        0.058326 1.16016 -0.267425
        -0.384377 1.25984 0.605804
        0.307683 0.711106 -0.293849
        -1.82418 2.47867 -0.320876
        -0.0148555 0.918352 -0.536259
        -0.595509 1.98966 0.305267
        -0.922759 -0.0220565 0.426392
        0.329729 1.46223 0.423794
        0.198805 1.50274 1.04917
        -0.463524 1.56016 0.0354336
        -0.50431 2.04557 -0.0780265
        -0.556866 1.99743 -0.414739
        -0.40407 1.32169 0.250498
        1.69967 0.904676 -0.566829
        0.57248 0.559991 0.207056
        -1.191 1.2878 -0.382282
        -0.599217 1.54039 -0.0115331
        0.614446 1.93182 1.12263
        -1.45685 0.303256 -0.401881
        -0.0349918 1.07443 -0.360727
        -0.47196 0.696013 -0.732948
        0.511267 0.787422 1.46323
        -0.615426 1.29189 0.483626
        0.431203 1.88174 -0.605787
        -0.590301 3.1876 0.702152
        -0.60084 3.10741 0.0497152
        -0.025993 0.981269 -0.142381
        0.0474362 2.15873 -0.0257847
        -0.0657328 -0.0870943 0.0453793
        0.904326 1.51842 -0.436782
        1.41572 1.752 1.80016
        -0.573827 3.16096 -0.540072
        -0.879078 0.511723 -0.102768
        -0.135276 1.1238 0.556549
        -0.5458 1.48614 -0.22651
        -1.00137 2.41088 -0.185962
        -0.628802 2.08215 0.173414
        0.491609 2.10113 -0.884516
        1.40176 0.604611 -0.168437
        -0.596142 1.65438 -0.385719
        -1.02597 1.76731 2.22326
        -1.33172 1.2251 0.339307
        -1.22019 0.866579 0.168523
        1.02955 1.29478 -1.15413
        -1.02613 1.85489 -0.665661
        -0.135791 1.92363 -0.843647
        0.863695 1.55663 0.473434
        -0.0223356 0.475747 -0.111881
        0.153655 1.13414 -0.41784
        -1.24461 0.843335 0.643108
        0.576778 0.74751 -0.394967
        -1.65309 1.86432 -0.395611
        0.521059 0.983258 1.71232
        0.132691 0.828313 0.300141
        -0.344822 0.661635 -0.535916
        1.25893 1.98261 -0.424864
        -1.357 1.54962 -0.408886
        -0.104484 2.38917 0.443917
        -0.24947 0.0432123 -0.937891
        -1.09253 2.81025 0.559334
        -0.326829 2.07346 -1.0759
        -0.380051 -0.508472 0.312573
        0.474843 -1.52436 0.190153
        0.171521 -1.93598 -0.0641166
        0.522798 -1.77871 0.779738
        0.194941 -1.19066 0.323962
        0.35988 -1.58616 -0.262096
        -0.700828 -0.0118402 0.464523
        -0.927925 -1.9811 1.06258
        0.361223 -0.365572 0.275426
        -1.2297 -0.465328 0.297595
        -0.284052 -1.36008 0.781822
        -1.16578 -1.23935 0.506237
        0.194129 -1.70145 0.302071
        0.0504118 -1.0221 -0.463789
        -0.622403 -1.88516 -0.441085
        -0.235052 -0.681566 -0.146571
        -0.23075 -0.755425 1.46978
        0.347216 -1.64348 0.397561
        0.55611 -1.00353 0.043774
        -0.432684 -1.29108 -0.384587
        0.0644866 -1.52849 -0.0770324
        -0.171421 -0.954967 -1.81272
        -0.408331 -1.86376 -0.308613
        -0.593787 0.979026 -0.254643
        0.163319 -1.52365 -0.681201
        0.763795 -1.83011 -0.662934
        -1.11037 -1.20616 0.541412
        0.339032 -1.7411 0.0284663
        -0.342819 -1.44665 0.735732
        0.355387 -2.38433 0.71793
        0.0281958 -2.57277 -0.456079
        0.404338 -1.32192 -0.250761
        -0.155458 0.177479 -0.341261
        -0.79078 -1.56969 -0.753109
        -0.175443 -0.22176 0.204747
        0.717498 -1.06888 0.0257126
        -0.925509 -1.76182 -0.187436
        1.16448 -1.45851 -0.357826
        -0.486651 -1.5505 -1.30893
        0.399998 -1.65006 0.543561
        -0.609496 -0.10489 0.124287
        0.577612 -0.55104 -0.325956
        0.329053 -1.51062 -0.112569
        1.00178 -1.42362 -0.106941
        -0.11611 -1.05802 0.881442
        0.279841 -2.59636 -0.016201
        0.424882 -1.70964 0.157711
        -0.989806 -0.363772 -0.106376
        -0.239271 -0.834288 -0.300979
        0.922669 0.0221448 -0.426618
        0.361859 -2.69809 -0.331536
        0.188677 -0.631357 0.150721
        0.355714 -1.13432 0.00395493
        0.25761 -2.39549 -0.0514451
        0.665828 -1.48025 0.0104181
        -0.245097 -0.522079 1.06018
        0.119137 -0.800425 -0.305588
        -0.437907 -0.916864 0.172984
        0.730168 -0.709749 0.0125085
        -0.838115 -1.05938 -0.164355
        -0.272501 -1.94726 0.740914
        0.591436 -2.12278 0.134925
        1.36054 -1.33444 1.6167
        -0.464781 -1.49939 1.20332
        0.16078 -2.59701 0.808324
        -0.496219 -1.43519 0.361209
        -0.0201252 -0.679703 -0.440047
        0.278135 -0.714718 -0.512301
        0.0189392 -1.26975 0.356628
        -1.23803 -1.24173 -2.14079
        0.676902 -1.84507 1.16818
        -0.0935331 -2.71721 0.180199
        1.4804 -0.836789 -0.522158
        -1.6155 -1.40956 -0.23808
        0.442423 -0.0563393 -0.0438737
        -1.16868 -1.29515 -0.351982
        -1.11077 -2.07176 0.206308
        -0.0149726 -1.75926 0.654687
        -0.978788 -2.16333 0.0526843
        0.532129 -1.98719 0.890408
        0.53706 -1.65749 0.781307
        -0.35882 -1.34325 -0.066521
        -0.700772 -1.00932 -1.42221
        -0.328468 -1.27199 -0.112789
        -0.47349 -0.88437 0.249079
        -1.59342 -1.0015 0.114593
        0.442092 -0.94065 -0.0305955
        -0.37123 -1.85995 -0.19642
        -0.730543 -0.895722 -0.123273
        0.0586936 -1.78546 0.129475
        0.661651 -2.32514 -1.16044