<?xml version="1.0" encoding="UTF-8" standalone="no" ?>
<VTKFile byte_order="LittleEndian" type="UnstructuredGrid" version="0.1">
  <UnstructuredGrid>
    <Piece NumberOfCells="0" NumberOfPoints="1764">
      <PointData>
        <DataArray Name="velocities" NumberOfComponents="3" format="ascii" type="Float32">
        0.0448311 -1.56566 -0.238594
        0.394694 -1.32119 0.440714
        1.00731 0.338166 0.165466
        -0.492857 -1.67495 1.26606
        0.0267719 -1.91802 -0.75854
        -0.466432 -0.93742 1.39149
        0.197186 -2.18141 0.206334
        0.746147 -1.2673 -0.0626512
        0.196313 -0.0915375 0.768766
        -0.187476 -0.410431 -0.344263
        -2.33127 -0.837973 0.0456721
        -1.14478 -1.72715 -1.09864
        -1.40363 -0.450017 1.38449
        -0.757005 -1.60662 0.373466
        0.244817 -0.872119 0.252161
        -0.0996158 -1.27235 -0.858732
        1.21897 -0.564365 1.27528
        2.6319 -0.975413 0.170476
        0.0243362 -1.37241 0.128958
        1.22844 -1.32538 1.05884
        -0.726873 -1.14165 -1.3689
        0.663634 -1.81927 0.585596
        0.951364 -0.362485 -0.701418
        -1.17672 -0.424624 0.905424
        -0.25999 -1.03599 -0.119422
        0.574568 0.242547 -0.948265
        -0.29536 0.441777 0.720279
        -0.628357 -1.49052 -1.21929
        -0.536225 -2.65691 -0.792783
        -0.733387 -0.906607 -0.507613
        0.414507 -1.2025 0.569004
        1.44638 -0.661585 0.480509
        -1.0258 -1.8039 -0.489577
        0.726875 -1.36358 0.056209
        -0.727844 -1.13629 0.649687
        0.372822 -0.194171 0.140318
        -0.2054 -1.66525 0.141953
        -0.125257 -1.3485 0.0692238
        -0.581949 -1.62919 0.148336
        0.515713 -0.452511 0.0720465
        0.812308 -2.64245 -0.157255
        1.2048 -1.01246 -0.920581
        -0.83501 -1.74925 0.279552
        0.927129 -0.855958 -0.570852
        -0.955707 -2.61631 0.483332
        0.511294 -0.866499 1.87235
        -0.0536289 -0.0141152 -1.43243
        -0.829483 -1.28159 0.0340771
        -0.155464 -1.29523 0.0143837
        -0.395187 0.332416 0.0225083
        1.55658 -1.13511 -0.212107
        -1.33518 -0.282474 -0.506871
        0.686221 -1.38854 -1.1589
        -0.479936 -1.68128 0.290373
        -0.72548 -1.41368 1.44238
        -1.20216 -1.85569 1.01368
        -0.824515 0.199333 0.206502
        0.917704 -1.27943 0.453212
        0.475352 -0.417941 -0.551005
        -0.991445 -0.828493 0.0867416
        0.188297 -1.05265 -0.544628
        -0.830318 -2.29543 0.381067
        0.0638169 -1.86441 0.111961
        0.113588 -1.98097 0.314667
        -0.138453 -0.998641 0.121589
        -0.325372 -1.80187 1.01586
        0.380697 -2.06212 -1.29393
        -0.182331 -1.38266 0.447338
        0.523419 -1.59108 -0.692005
        0.160201 -1.82712 0.119898
        -0.662713 -0.684881 -0.154854
        -0.335802 -1.25175 0.220979
        0.106772 -1.27976 -1.84729
        -0.192742 -1.78075 0.459243
        0.90615 -2.03207 0.533762
        0.213478 -1.96293 -1.26453
        0.651625 -1.42221 -0.483091
        -1.41229 -1.62245 0.929931
        1.21268 -0.949528 -0.297254
        -0.672872 -2.04666 1.07421
        1.55065 0.46615 0.499517
        -1.02771 -1.14702 -0.244575
        2.22004 -2.84974 -0.0756475
        -0.794578 -1.73099 0.43938
        0.0883304 -0.715064 0.214388
        0.108326 -0.786228 0.190063
        0.282464 -0.678444 0.43977
        -0.106121 -1.76015 1.47158
        0.48801 -1.77812 -0.194733
        -0.348875 -1.44864 -0.675622
        -0.224626 -1.69697 -0.107613
        0.74225 -0.6745 -0.61253
        1.17279 -0.928782 1.10434
        -0.698153 -2.31304 0.376131
        -1.94218 -1.51399 0.494709
        -0.0199961 -1.24572 -1.40693
        2.09499 -0.911132 -0.819589
        0.233347 -2.81942 0.331839
        -0.77772 -1.40165 0.292297
        1.11825 -1.0224 0.27117
        -0.299177 -1.09369 -1.0732
        0.0585428 -1.53068 -0.0277784
        0.0466796 -0.311142 -0.806024
        -0.720247 -0.957729 -0.214436
        -0.379379 -1.16239 0.895204
        -0.454579 -2.77721 1.38111
        0.621222 -1.02857 -0.187127
        0.514292 -1.68859 0.471989
        -0.620525 -0.279 0.0806288
        -0.35475 -1.62963 -0.475122
        0.421574 -0.670025 -0.339871
        0.000539658 0.405373 -0.167498
        2.65341 -1.17717 0.302933
        -0.183808 -1.6526 -0.433144
        0.492582 -1.22494 0.85746
        -0.577063 -2.07069 0.234963
        0.187175 -1.62997 -0.273717
        -2.37124 -2.46795 -0.169171
        0.0010328 -1.88091 -0.223717
        0.520001 -2.46966 -0.272894
        -0.257847 -2.85266 0.466819
        0.284066 -1.15823 -0.0646003
        0.75296 -1.38596 -0.125289
        0.726531 -1.80596 0.255781
        -0.368998 -1.3028 -0.25052
        -0.190952 -1.28023 0.63019
        -0.00123733 -0.948506 1.64071
        -0.0947474 -1.20038 -0.50922
        0.379067 -1.10228 -0.62059
        -1.08124 0.152859 0.992779
        0.719944 -2.52587 -0.364973
        -0.898801 -0.411042 -0.166262
        0.662471 -1.7048 0.0339092
        0.152383 -1.42272 -0.524576
        0.609059 -2.24519 -0.138224
        0.594289 -1.60024 0.0466008
        1.38026 -1.79438 0.300417
        0.325871 -0.349675 -0.723768
        -0.682092 -1.31915 -0.301201
        -2.49857 -1.6292 0.405882
        -1.11838 -2.34023 -0.27896
        -1.26978 -1.25819 -0.118484
        0.580471 -1.103 0.175305
        -0.0296317 -0.930135 -0.658701
        1.2084 -2.63668 -0.397174
        -0.164536 -0.339215 -0.709492
        0.0189704 -0.0264504 -1.53699
        0.68417 0.633166 1.40183
        1.87327 -1.59572 -0.191558
        0.502149 -0.872315 -0.420399
        -0.356258 -0.220354 -0.725323
        -0.548937 -0.157789 0.0584376
        -0.455481 -0.123106 1.84451
        -0.12465 -0.190759 0.340761
        -0.510688 -0.671986 -0.823735
        1.0173 -2.1387 0.389663
        0.973391 0.135305 -1.52678
        -0.757904 -0.199262 -0.779115
        -0.567362 -1.05032 -1.27941
        -0.093714 -0.941669 -0.379655
        -1.12341 -1.94908 0.181006
        -0.347898 -0.677959 -0.694762
        -0.766652 -0.678736 0.286744
        -1.3904 -1.55397 1.52101
        -1.31468 -1.27816 0.473835
        0.612089 -1.1516 -0.61036
        -0.222908 -0.320855 0.556951
        0.345863 -0.738558 0.3595
        -0.18706 -2.10326 -0.325831
        0.0511556 -0.603167 0.152335
        0.91918 -1.72406 0.0966723
        0.367443 -0.65647 0.61427
        -0.195987 0.600343 -1.28116
        -0.684827 -0.721516 2.17387
        -0.998012 -1.00767 -0.421953
        -0.482625 -0.94983 0.295179
        0.0734411 -1.12303 -0.285411
        -0.965026 -0.544975 -2.11795
        0.149802 -1.66664 0.515169
        -2.50944 -3.62199 -0.420515
        -0.0943536 -1.1559 -1.71473
        -1.39113 -1.54513 -0.528281
        0.0855442 -0.520371 -0.351522
        -0.0939393 0.181719 0.235957
        -0.0998449 -1.63154 0.626515
        -0.537727 -2.05355 -1.52723
        0.454006 -0.371363 1.00391
        0.784758 -0.321771 -0.100399
        -0.377459 1.34465 -0.255126
        0.460385 1.96685 -0.206357
        0.105846 1.61536 0.91296
        0.0947346 1.30247 0.428685
        -1.21809 -0.421796 -0.126049
        0.679615 -0.282205 0.400367
        -0.427761 0.26458 0.179331
        -0.0293793 0.956473 -0.345409
        -0.397566 0.835326 0.0823015
        -0.191974 -1.22388 0.560821
        0.876854 1.60954 0.0876303
        -0.901803 0.168896 0.416406
        0.419471 0.198679 -0.422638
        -0.544604 1.0609 0.00791209
        -0.00359542 1.33364 0.780876
        1.1438 0.325759 0.0748797
        -0.708584 1.14282 1.09282
        -0.849245 1.61387 0.794545
        0.210876 1.52354 0.753943
        2.23983 1.94018 -1.17723
        0.41435 0.667879 -0.402647
        -0.435689 0.89158 -0.278458
        0.543014 0.843469 0.529682
        -0.0258786 1.38311 0.749065
        -0.764175 2.11741 1.83646
        1.62186 1.73501 0.774635
        0.719855 2.27285 0.364247
        -0.417807 0.921849 1.5357
        -0.488771 0.0496753 0.266022
        -0.550709 0.9036 0.164036
        0.494865 1.40718 0.210531
        -0.0954129 0.110298 0.856275
        0.0223469 1.99765 1.62635
        -1.06444 0.771686 0.726214
        -0.397983 1.96075 -0.916375
        -1.65298 1.72258 -0.737711
        0.788642 2.11971 -0.716955
        -0.308447 1.61033 -1.40219
        1.52555 2.51681 0.276212
        0.0643055 1.68013 -0.612251
        0.26488 1.35848 1.06514
        0.0203727 1.52612 0.786683
        0.161034 2.4658 0.225669
        1.36611 1.86081 0.781612
        0.694195 1.25053 -0.0602411
        -0.0015937 1.18847 0.922113
        1.25145 1.23157 0.790483
        -0.212911 1.88646 -0.595002
        -0.538036 1.25677 0.719038
        -0.948645 0.946476 -0.684909
        -1.03554 1.10712 0.0450008
        -0.114082 -0.194033 -0.267511
        -0.685759 1.445 -0.937594
        -0.837304 0.77755 0.0625343
        0.0293589 1.98284 -0.0576828
        -0.279564 2.01775 -0.780072
        -0.367698 1.08286 0.00146955
        0.292287 2.90908 -0.0755668
        -0.0601015 0.649569 0.452017
        -1.08216 2.24909 1.1759
        -1.42301 1.22871 0.947458
        0.118078 0.68978 0.721477
        0.872835 1.48718 -0.428497
        1.38805 1.82995 0.922489
        0.299778 1.64916 0.0917972
        -0.0482053 2.2701 0.772993
        0.225423 1.46686 0.0218935
        0.0186605 0.548025 -0.432224
        -1.1603 1.53748 0.936524
        0.581158 1.02102 0.0978428
        0.261643 0.958337 -0.143738
        -0.877858 -0.367351 -0.505199
        -0.126761 0.23771 -1.76406
        -0.345992 1.71954 0.437634
        -1.95254 2.07214 -0.323865
        -1.31781 1.1282 0.290933
        1.6401 0.462215 0.222575
        0.5211 0.899886 0.529258
        -2.28639 -0.305341 -0.0914707
        0.273741 1.39583 0.339327
        0.215683 1.18188 1.20779
        0.955532 0.434446 0.00555877
        -1.15796 1.0242 1.89249
        -0.485471 0.361016 0.98375
        -1.20349 1.68204 -0.44251
        0.453234 1.42407 0.859088
        0.493114 2.04557 -0.891657
        -0.760438 0.520079 -0.422784
        -0.335257 1.51139 -0.514029
        -1.30056 1.48704 0.0837701
        -0.144404 1.87255 0.613608
        -0.25799 0.433955 -0.506183
        -0.0233101 -0.0967374 -0.923323
        0.765483 0.536839 0.0794343
        -0.182574 0.829341 -1.5151
        0.164288 1.95617 0.938658
        0.308269 0.497644 -0.306193
        0.0266109 2.00465 -0.304822
        -0.0789977 1.98891 -0.0328011
        -0.464295 0.655516 0.298665
        0.556641 2.8616 0.0338292
        0.169836 1.41926 0.610078
        0.259904 0.839008 -0.0782712
        -0.839754 1.39941 0.0570788
        -1.07435 0.893692 -0.719911
        -1.69609 1.93163 -0.584304
        0.31781 1.39503 0.0213594
        -0.822407 2.34574 1.82137
        -0.0204657 -0.119455 0.486613
        0.509569 1.25647 -0.551461
        0.222129 2.00716 -0.526067
        0.121478 1.76111 -0.239402
        -0.214575 1.04111 -0.160994
        -0.207934 0.842265 -0.0187061
        0.415322 1.52661 0.265468
        -1.53666 0.816722 -1.55587
        -0.893934 1.57153 -0.331594
        -0.262354 0.630405 -1.05211
        -0.402036 1.35167 -0.203128
        0.226559 0.589133 0.668302
        1.35553 2.44469 -0.94664
        0.746239 1.08965 0.537413
        -0.486802 0.714061 -0.193755
        0.286236 0.220408 -0.45309
        0.74008 1.53985 -1.33341
        -1.1866 2.17534 -0.615585
        0.388548 0.899769 1.22197
        -0.707547 2.90378 0.702134
        -0.777437 2.05503 0.669037
        -0.504593 0.138213 -1.24543
        -0.25621 1.95428 0.692616
        -0.0801415 0.238989 0.0692875
        -0.322216 0.732369 -0.6048
        0.228184 0.957772 0.320397
        0.29286 1.35771 -0.080624
        0.153499 1.36951 0.577709
        -0.721427 1.52981 -0.257137
        -0.668524 2.60098 -0.413971
        0.0385529 1.16609 -0.900312
        1.49059 0.854345 1.44693
        -0.0565861 1.20008 -0.440151
        0.720815 -0.577215 -0.222223
        -1.53045 2.15627 1.0484
        -0.443003 3.41759 -0.0463248
        -0.199756 2.92072 1.22172
        -0.289687 1.0646 -0.683088
        -0.222529 0.232702 0.602405
        0.252245 1.67346 -0.0261003
        -0.0222382 0.891966 -0.713431
        0.413869 1.8451 -0.11561
        -0.367325 0.980239 0.230464
        0.383009 1.83552 -0.746408
        -1.37228 2.18158 0.0268934
        -1.48827 -0.0771992 0.124305
        0.222716 0.8139 -0.59699
        1.19641 2.19394 0.511745
        0.311628 2.60864 -0.001082
        0.371381 2.06593 -0.337391
        -0.670759 2.32609 -0.757894
        0.350621 1.74623 0.554156
        -0.218556 1.06174 0.721864
        0.614334 1.38061 -0.335155
        1.47204 0.96935 -0.306441
        0.216702 0.998357 1.25276
        0.121497 0.951654 -0.068734
        -0.495525 0.958443 -1.57867
        0.406256 0.576331 0.652024
        -0.349744 1.86194 0.831499
        -0.0261421 1.42151 0.335305
        -0.805535 2.23709 -0.414927
        -0.757922 0.807874 -1.15362
        0.289151 1.63912 1.21921
        -0.85328 1.17648 0.99226
        -1.00431 0.891247 -0.358041
        -0.587324 1.21494 1.0395
        -0.11167 -0.0812678 -0.666572
        -1.26127 1.44795 1.57478
        -0.616487 0.89639 -0.704
        -0.840433 2.36763 -1.72827
        -0.442958 -0.544429 0.326358
        1.19524 1.31694 -0.161572
        -0.629562 1.8449 -0.419096
        -0.544491 2.10587 -0.480333
        0.00793298 2.12844 0.284614
        -0.410475 2.01842 0.293954
        0.365448 -0.233579 -0.109096
        0.686533 1.07995 -0.40321
        -2.08187 0.787463 0.40198
        0.911041 1.94339 -0.16151
        -0.893814 1.61915 0.287635
        -0.356754 2.23622 0.494268
        -0.241856 1.42724 -1.64611
        0.579494 -1.2559 1.05468
        0.873049 -2.23226 0.00336868
        -0.191679 -1.36652 -0.306587
        -0.117188 -0.878448 0.321495
        0.795454 -2.18774 0.683879
        0.395049 -1.16007 0.149172
        0.750024 -1.45692 1.08603
        0.25573 -0.354122 -0.946372
        -0.600171 -0.893119 0.54411
        1.45936 -1.08565 0.108173
        -0.276771 -2.247 0.657893
        -1.68817 -2.14635 0.423589
        0.321199 -1.51161 0.128406
        -0.646857 -1.40665 0.647224
        0.679887 -2.10104 -0.284437
        1.73467 -1.37539 -1.4567
        -0.145371 -1.36898 -0.294057
        0.471156 -0.978032 -0.399882
        0.205218 -1.03981 0.346586
        -0.309395 -1.46643 0.759641
        -0.412579 -1.43999 0.296796
        -0.113781 0.210079 -0.662935
        0.464012 -0.101729 -1.12712
        -0.28101 -0.63333 -1.07873
        0.0495089 -1.86225 0.812047
        -0.0763235 -0.0554838 1.06101
        0.389932 -0.826931 1.24722
        -0.603759 -0.855737 0.858909
        0.26143 -1.55943 0.499528
        0.982274 -0.409309 -0.694152
        0.0451472 -1.35513 0.536012
        -0.803428 -1.37546 -0.639337
        0.0359937 -0.453546 -0.33277
        0.27892 -1.63568 0.0801298
        -0.853687 -0.583495 0.267028
        -0.513828 -0.811615 0.335677
        0.931851 -0.942022 0.262683
        -0.496718 -1.33146 -0.716521
        0.871357 -0.970403 0.85355
        -0.583162 -1.25683 0.00486332
        0.979222 -2.29796 -0.21608
        -0.489335 -1.65164 -0.361394
        -0.33734 -1.65018 -0.83939
        -0.857616 -0.457218 -0.0324132
        -0.109865 -1.2143 0.0608611
        0.0681994 -1.9247 0.539884
        0.570464 -0.949502 0.575803
        0.0409032 -1.08909 -0.323766
        -0.186175 -1.87008 1.52246
        0.521376 -1.479 0.395661
        -0.499143 -1.12069 -0.137605
        -0.0224622 -0.974998 -0.792738
        0.14351 -1.15319 0.0470635
        -0.144412 -0.969126 0.551838
        1.20326 -1.04165 0.480004
        0.0212631 -1.46297 -0.0830293
        -0.23564 -1.16417 0.131501
        0.567086 -0.746327 -0.477123
        0.839672 -1.30872 0.648907
        0.251388 -1.46067 1.19036
        -0.00528086 -0.470735 0.105337
        0.244105 -0.943954 -0.530334
        -0.141735 -1.188 0.332854
        0.876478 -1.20627 -1.00505
        -0.882301 -0.725401 0.0389362
        -0.181528 -2.14878 -1.87501
        -1.26037 -0.863574 -0.303805
        -1.07008 -2.03391 -1.43985
        -0.565497 -0.915202 0.668069
        -0.688894 -0.782085 -0.306385
        0.944934 -0.663183 -1.3264
        -0.483341 -0.952935 1.77749
        -0.621855 -1.66045 0.0350084
        -0.370811 -1.37428 -0.598171
        0.872956 -1.5059 0.517188
        0.616814 -0.95715 0.47331
        -0.443899 -1.52382 0.21404
        -0.131486 -1.57025 0.533371
        -1.03368 -1.50143 -0.249174
        0.380713 -2.70639 0.0563423
        -0.423632 -2.04883 0.619936
        1.24678 -1.65963 -1.31732
        0.0897626 -1.14432 0.112957
        -1.22748 -2.1807 0.0042955
        -1.04234 -1.46264 0.95063
        0.0804209 -2.2225 -0.434184
        -0.705 -0.956544 0.724493
        0.887907 -1.53323 0.591301
        -0.00983952 -2.47922 -0.49531
        -0.523738 -1.15239 0.681076
        -0.911627 -1.4405 0.173914
        -0.895399 -1.28026 0.0290967
        -2.74618 -2.50574 -0.231497
        0.13647 -1.55246 -1.04623
        0.36097 -1.96239 -0.919067
        1.50897 0.908914 -0.130969
        0.0547105 -0.158896 0.377906
        0.0306952 -2.29352 -0.167
        -0.0223492 -2.17496 0.0718389
        -0.353305 -1.81902 0.83769
        0.575296 -1.74223 0.393891
        0.216443 -0.718894 -0.0624965
        -0.312861 -0.579146 -1.08296
        -1.25152 -1.75494 -0.471494
        0.582829 -2.4575 -0.0700474
        0.226566 -0.663286 -1.2145
        0.61788 -1.24883 0.67632
        -0.550579 -1.82317 -0.0914533
        0.900755 -2.2546 -0.23425
        0.0876334 -3.06084 -1.07527
        0.0894818 -2.4161 -0.325049
        -1.42827 -1.12887 0.297532
        0.31791 -1.62653 -0.101231
        -1.171 -1.54395 1.05252
        -0.465197 -2.82027 -0.141292
        -0.452731 -1.38546 0.993849
        0.112548 -0.581286 -0.234909
        1.06 -2.40816 -1.67976
        1.54116 -1.76973 -0.861119
        -0.364554 -2.13923 -0.205688
        1.06386 -2.12314 0.256322
        0.600983 -1.68029 0.21062
        -0.664013 -2.64249 0.432574
        -0.6553 -0.741126 -0.452027
        2.01334 -0.51432 -1.24814
        -1.1547 -1.58165 -0.0849155
        0.67559 -1.98434 0.457215
        2.16777 -1.88381 0.714778
        0.921784 -0.60481 -0.85458
        0.182353 -0.479311 0.595377
        0.324287 -1.86142 -0.960758
        0.307117 -1.59518 -0.266223
        -1.51011 -1.70335 1.27591
        1.17535 -0.529026 -0.717026
        -0.561391 -0.874233 -0.847041
        0.820391 -1.63253 -0.226014
        0.429915 -2.14617 0.0113246
        -0.452028 -1.88436 0.213732
        0.0597552 -0.896129 0.0644847
        0.0979069 0.0774893 -0.955259
        1.33848 -0.888893 -0.57792
        0.0607959 -0.327838 -0.533195
        -1.29089 -0.62043 -1.26324
        0.64224 -1.15845 0.394104
        -1.47743 -0.107182 -0.562956
        0.459337 -0.50931 0.503285
        0.58257 -1.49712 0.0505498
        0.786356 -2.79176 0.260521
        0.0528035 -1.3636 0.911153
        -1.11217 -2.2745 -1.38243
        0.401721 -2.36199 -0.487633
        0.387973 -0.638373 -0.296609
        -1.27797 -1.88428 -1.20588
        0.625984 -1.18588 -0.352191
        -1.37615 -0.942411 -0.285158
        -0.258633 -1.49291 0.215434
        -0.963981 -1.27491 -0.138177
        -0.380719 -1.16943 1.35859
        -0.617417 -0.180401 0.501662
        0.135867 -1.41575 0.644166
        -0.9172 -1.21341 0.116063
        1.07985 -1.43925 -0.267675
        -0.0960039 -2.92798 -1.64243
        -0.560398 0.425776 1.42364
        -0.414465 -1.8079 -0.708606
        -0.416448 -1.76345 1.25964
        -1.19538 -1.60378 -0.543136
        -0.472258 -1.49585 0.59592
        -1.49202 -1.79706 1.47592
        0.646213 -0.642204 0.241234
        -0.894385 0.0534415 -0.890008
        -0.0873289 -0.142114 0.310921
        0.156802 -0.711411 0.586355
        -1.10053 -1.1573 0.257508
        -0.354517 0.566875 -0.420695
        -1.04636 -0.246942 0.281086
        0.265956 -0.298808 0.445033
        0.564737 -0.772421 0.0801412
        -0.48221 -0.323616 -0.265138
        -0.876036 0.358758 0.818159
        -0.43965 -1.12676 0.769019
        1.87559 0.275852 -0.571541
        0.415078 -1.21135 0.205814
        -0.695978 0.535612 0.116457
        0.214381 -0.421379 0.960288
        -0.38999 1.41104 0.136604
        1.36673 -0.581572 0.178525
        0.972095 1.88986 0.125282
        0.83225 -0.121362 0.191149
        1.03088 1.29474 -0.58387
        0.280268 0.0609758 0.44545
        0.490627 0.114675 -0.0204344
        0.640403 0.778348 -0.82156
        0.756662 1.57922 -0.454518
        0.398765 1.17415 -0.408664
        0.382949 0.898011 0.414602
        -0.0285346 0.327101 0.186319
        0.0494445 0.390749 -0.0111747
        0.680631 -0.321054 0.0268648
        0.44876 0.356329 0.550329
        -0.51282 0.297969 -0.309408
        -0.86796 0.276124 0.592108
        -0.102084 0.315807 -0.303444
        -1.11384 1.38016 -1.22551
        -0.169348 0.405989 -0.0514195
        0.145239 -0.136093 0.184235
        -0.111394 -0.573214 0.556795
        -1.01285 0.96727 -1.10648
        0.397427 0.678224 1.18261
        -0.685475 1.27791 -0.173057
        -1.0324 0.208538 0.577424
        0.261601 1.2632 0.280682
        0.650087 1.82182 1.02838
        -0.00314315 1.77429 -0.527642
        0.279776 0.297745 -0.600389
        -0.34673 1.05887 0.0813052
        -1.01283 2.00311 0.937926
        -0.340578 1.34043 0.770293
        0.474469 0.459191 -0.489677
        0.619995 2.28191 -0.276299
        -0.602453 1.00212 1.27597
        -0.5512 0.663583 0.115352
        -0.288517 0.704526 0.178928
        -0.951067 1.9608 -0.678023
        0.0405291 2.19354 -0.52091
        0.134958 0.538578 0.600905
        -0.629896 1.30762 0.351738
        0.132337 1.2944 -0.407824
        0.412439 -0.104831 -1.32526
        0.685899 -0.201023 -1.17445
        -0.219079 1.92064 0.00887915
        -0.499109 1.88307 -0.912228
        0.264525 1.479 -0.580739
        0.558659 2.66065 -0.308189
        -0.23789 1.94018 -0.642765
        -0.381286 1.72223 -0.605698
        1.11451 1.26643 0.392566
        -0.664231 1.47825 -1.16527
        0.83749 2.31953 -0.206338
        -0.153493 2.08068 0.0300031
        -1.95188 2.07007 -0.61993
        -0.268358 1.81957 -0.658608
        -0.728282 1.87578 -0.134648
        -0.817704 0.253272 -1.00396
        0.0073612 1.45984 0.620574
        -0.021714 2.51542 0.189735
        0.517646 0.885721 0.00178564
        -1.38942 1.74231 -0.348061
        0.172414 1.67721 -1.00221
        -0.836834 1.42591 0.375666
        -0.767013 0.37345 0.0818818
        -0.518194 0.921296 0.833921
        -0.0163747 1.34819 -0.947485
        -0.240272 1.86466 -0.40006
        1.53148 0.671738 -0.475506
        -0.194711 2.29007 0.415528
        -0.277208 2.01954 -0.487228
        0.164929 1.39021 0.0498688
        -1.45649 -0.571933 0.326107
        -0.606518 0.91321 0.873446
        0.891317 1.19853 0.037808
        0.0829578 0.816777 0.326191
        -0.490612 1.54794 -0.902869
        0.541216 1.88032 -0.324706
        -0.0420126 0.658373 -0.0412909
        0.456107 1.38969 0.380057
        0.67177 0.304864 -0.004753
        -1.3106 2.22616 0.811029
        -0.105613 1.04732 1.03206
        0.264051 1.79498 -1.42912
        -0.0661297 2.25112 -0.88888
        0.737201 1.08032 -0.222393
        0.967809 1.88613 -0.615967
        0.81046 1.43902 -0.290504
        -0.810068 0.597527 0.0822621
        -0.716325 0.831643 0.0269329
        -0.911698 1.42356 0.565183
        -0.779341 1.7301 -1.26294
        0.75026 0.0437173 -0.46761
        0.449349 0.820032 0.18386
        -0.821639 -0.0607336 -1.1949
        -1.10067 1.27078 0.983958
        -0.548324 0.961037 -0.355497
        0.271013 1.40111 0.567364
        -1.60229 0.0426933 -0.34194
        0.856327 1.30792 0.750825
        -1.38757 2.25889 0.565499
        -0.827264 2.41965 1.15921
        -0.499914 1.06191 -0.11445
        1.83179 0.901281 0.573914
        -0.428659 1.53029 -0.917812
        0.721318 1.66858 0.999254
        0.331872 0.687484 -0.266358
        0.455855 0.596905 -0.433466
        1.03698 1.20382 -0.744529
        -0.502268 0.336627 -0.45273
        0.74244 1.62396 0.743388
        -0.0296435 1.74666 0.239973
        0.0516174 1.65823 0.796317
        0.962381 2.88942 0.205068
        -0.0690107 2.12825 -0.251127
        0.0284092 1.83699 1.19269
        -1.19178 -0.414091 -1.98849
        -0.273155 1.94578 0.144682
        -0.80482 0.862583 0.279055
        0.58576 1.68026 0.266502
        -0.906483 1.43741 0.900365
        -0.252263 2.18186 0.37962
        0.0316477 0.744384 0.847917
        0.730802 0.894137 0.774418
        -0.786891 0.427635 0.0397553
        0.704423 1.02299 -0.5116
        0.174827 0.973856 1.07747
        -0.460875 0.878691 0.561468
        0.475936 0.819264 0.394923
        -0.39654 1.32885 1.05727
        -0.26049 0.786552 0.24847
        -0.182566 2.27313 -0.301684
        -0.43378 0.766797 -0.869772
        -0.499076 1.72397 0.0105791
        1.46873 2.91187 1.10202
        -0.672169 1.37869 1.29664
        -0.619862 2.18085 -0.490916
        -0.327427 2.85437 -0.358532
        0.534565 -0.0380577 0.547648
        0.754137 1.00427 -0.48388
        -0.380732 1.02531 -0.0463206
        -0.122905 1.57591 -0.109322
        -0.756202 1.40619 -1.31564
        -0.461967 0.565031 -0.5729
        -0.229483 2.31582 0.890241
        0.84075 0.720225 -1.29756
        0.268179 1.62016 -1.16238
        -0.433102 2.0825 -0.22559
        0.0571753 2.61898 -0.72017
        0.165619 0.614126 -1.43454
        1.04705 0.362025 -0.735845
        -0.360161 2.39824 -0.380247
        -1.16851 1.66333 2.09186
        0.826121 0.839306 -0.923374
        -0.204312 0.615813 0.995018
        0.257788 1.49105 -0.32006
        -0.374979 1.55229 -0.430775
        0.54739 0.282334 -0.119824
        0.395554 1.03809 -0.877628
        1.12895 0.724836 1.48569
        0.808715 2.53384 1.19442
        0.726251 2.20917 0.280554
        -1.48569 1.72398 0.0396262
        -0.619181 1.19369 -1.07397
        0.274868 1.64622 0.156072
        0.405167 1.09994 0.638174
        0.439554 1.24895 0.757172
        0.664058 1.36227 -0.0132348
        0.290046 1.37906 0.72845
        0.428188 1.6307 0.185887
        0.0478238 0.937068 -0.53913
        0.184103 1.92527 -0.948176
        -1.12736 1.27862 0.251497
        1.12375 1.27232 0.282123
        -0.89764 -1.22119 -0.583902
        0.0714386 -1.99239 -0.667121
        -0.66109 0.121594 0.215053
        -0.212342 -1.74304 0.181565
        0.459784 -1.45875 0.341176
        0.730225 -0.638962 -0.974345
        -0.15585 -2.26976 0.518745
        -0.509471 -2.0046 0.0410949
        0.722826 0.58668 0.943917
        0.180144 -1.46935 0.648953
        -1.82905 -1.09869 -0.107064
        -0.73788 -0.706821 0.116928
        0.570093 -1.6733 -0.792788
        0.588962 -1.07046 -0.441818
        -0.0174082 -1.20652 0.672135
        -1.02227 -2.4099 -1.23038
        -0.0775468 -1.25238 0.637761
        -0.234329 -1.32339 0.133244
        -0.953416 -2.17576 0.155948
        -0.93506 -0.294619 -0.137991
        0.0150275 -0.899867 0.299277
        0.470494 -1.18489 -0.720399
        0.643325 -2.01727 0.516401
        0.952888 -0.976633 0.0721614
        0.960597 -1.40942 -0.0487775
        -0.720928 -2.59497 0.408588
        1.12174 -0.873853 -1.27791
        -0.770932 -1.93989 -0.479808
        -2.11758 -1.49204 1.62312
        -0.26661 -1.83522 0.822075
        0.741516 0.155889 -0.971634
        0.226579 -0.355284 0.919698
        0.312515 -0.664404 0.869562
        -1.13837 -1.23634 -1.3981
        0.437862 -2.24044 0.239055
        0.317038 -1.08597 -0.424372
        -0.0730435 -0.825694 0.642754
        -0.296956 -0.727349 -0.396466
        0.80651 -1.28484 0.0361163
        0.0255596 -2.29406 -0.306881
        -0.0112597 -1.25109 1.5251
        1.26078 -1.44451 -0.0975885
        1.97468 -1.18751 0.587163
        -0.154531 -1.93555 0.738836
        0.0571123 -1.18987 0.420828
        -0.0806716 -1.73863 0.32393
        1.58713 -1.07166 0.601224
        1.00106 -0.448474 -0.253211
        0.448305 -0.681942 1.62169
        1.04458 -1.62749 -0.195398
        -0.113426 -0.226651 -0.207062
        -0.35778 -1.88937 0.231714
        -0.66201 -1.09401 -0.922376
        -1.29328 -0.950155 -0.107723
        0.398049 -1.30572 -1.2233
        0.846142 -1.73181 -0.547948
        -1.13063 -0.466683 -0.0925304
        0.0514327 -1.4405 1.8713
        -0.0171288 -0.333816 -1.97206
        -0.153812 -1.24812 0.771726
        -1.36913 -1.89637 0.130861
        -0.653875 -0.577841 -0.541036
        -1.11603 -0.477115 0.277761
        -0.594871 -0.687436 -0.510245
        -0.259539 -1.42763 -0.417601
        0.546409 -1.92958 -0.287055
        -0.410908 -2.12367 -0.0553278
        0.0639898 -1.6916 1.23186
        0.885591 -0.67698 -1.27148
        0.3541 -1.28963 -1.3469
        -0.160143 0.226305 -0.213
        0.217607 -1.1531 -0.122795
        0.294778 -0.668713 1.13615
        0.355991 -1.90337 0.155482
        -0.233707 -0.956885 0.115604
        0.0244005 -1.71114 0.103656
        0.216097 -2.04945 -0.859657
        0.454957 -2.18515 0.452562
        0.139598 -0.642042 -0.217177
        1.10775 -2.36101 -0.698618
        0.598214 -3.09824 -0.609868
        0.278203 -1.6605 -0.151158
        -0.394881 -0.737933 0.665905
        -0.286451 -1.27755 0.877998
        -0.0558468 -1.16331 -1.26233
        -0.087705 -1.55368 0.0149988
        0.0620573 -1.4709 0.793413
        -0.550142 -1.99401 -0.0351878
        0.134803 -1.89051 -0.805691
        -0.928243 -1.20269 -0.0966632
        0.670465 -1.53344 0.149408
        -0.32664 -0.392061 -0.762556
        -0.694486 -0.793686 1.30289
        0.676741 -1.991 0.470247
        -0.338222 -1.24739 -0.0499235
        1.60157 -2.40355 0.526014