<?xml version="1.0" encoding="UTF-8" standalone="no" ?>
<VTKFile byte_order="LittleEndian" type="UnstructuredGrid" version="0.1">
  <UnstructuredGrid>
    <Piece NumberOfCells="0" NumberOfPoints="1764">
      <PointData>
        <DataArray Name="velocities" NumberOfComponents="3" format="ascii" type="Float32">
        0.14263 -3.04695 0.0306704
        0.0431673 -2.88457 0.315397
        -1.47133 -4.15856 0.646749
        -0.200652 -3.9777 -0.865527
        -0.0576231 -1.67619 0.322579
        1.45321 -1.96835 0.915224
        -1.17365 -3.0002 0.226976
        -1.41116 -2.66525 -0.46282
        -0.545203 -2.90272 -1.13074
        -0.197884 -2.81686 -0.599364
        -0.733409 -2.82088 0.154635
        -0.572476 -2.30731 0.0295542
        0.501281 -2.84351 0.267795
        -0.607324 -2.49099 0.163137
        -0.480994 -2.47279 0.40926
        0.41349 -1.91844 0.173599
        1.43693 -2.64958 0.4775
        -0.63312 -2.60944 0.13193
        -0.695443 -2.83816 -0.753801
        0.616554 -2.43356 -1.07017
        -0.388742 -2.56629 -0.760892
        -0.545266 -3.04624 0.448596
        -0.340009 -2.46691 0.109815
        0.171357 -2.45949 0.11134
        0.346643 -2.70831 0.0241822
        -0.368699 -1.85134 0.324361
        -0.23223 -1.9584 0.668362
        0.172813 -1.80813 0.303916
        0.195712 -2.87316 -0.726589
        -0.132723 -2.86181 -0.725852
        -0.102623 -2.6493 0.16484
        0.391764 -2.63995 0.17664
        -0.308804 -2.32317 0.608154
        -2.57618 -3.43272 0.00101273
        0.249022 -2.78399 0.0143424
        0.943349 -3.18983 0.0442908
        -0.300486 -2.12355 -0.00935062
        -2.49624 -2.76646 0.575693
        0.977145 -2.06153 -0.948843
        -1.73212 -2.78802 -0.0813442
        -0.233885 -2.85851 -0.943415
        -1.39024 -2.72264 -0.899373
        0.681267 -2.95127 0.296524
        0.597538 -3.07016 -0.181621
        0.601483 -2.90903 0.07225
        0.129928 -3.35561 -0.227995
        -0.483576 -2.28681 -0.239897
        0.41337 -2.76143 -0.0478505
        0.270823 -2.80282 -0.662501
        0.584764 -3.1901 -0.652209
        0.337405 -1.67886 -0.108494
        -0.540929 -3.43339 -0.308214
        0.635351 -3.91705 -1.09142
        1.86303 -0.587913 -1.31473
        -0.848368 -2.56441 -0.316999
        0.104977 -3.22515 0.315374
        0.147288 -0.193261 0.308993
        -0.671057 -0.417018 -1.23547
        0.548571 -1.33177 -0.588183
        -0.320413 -0.831966 1.34023
        -2.0095 -0.325282 0.897748
        0.294818 -1.52099 1.05808
        0.857097 -1.44612 0.238325
        0.485829 0.151241 -1.02196
        -1.82704 -3.1696 1.34869
        -0.192223 -0.134408 -0.0414696
        1.4904 -0.407948 -1.55944
        0.0528166 -4.11716 0.144407
        -0.141885 -0.908535 -0.524788
        1.0802 -1.74027 0.172284
        0.239599 -2.01209 -1.23713
        -0.434921 -2.38417 -0.656623
        -1.28266 -0.407684 -0.640138
        0.281738 -0.163116 -0.929694
        0.759539 -1.98083 -1.27244
        0.451348 -1.99849 0.908462
        -1.05453 -3.16885 0.213839
        -0.163546 -1.17767 -0.451038
        -0.300073 -2.65494 0.138433
        -0.502962 -1.3333 -1.16107
        -0.153679 -1.62373 -1.03009
        -0.0386223 -2.56149 0.197996
        -0.464529 -1.64898 0.367486
        -0.46628 -1.23007 -0.0387168
        0.823923 -2.08445 -0.110319
        0.549092 -1.94773 -0.0765627
        -0.648406 -0.439623 0.777448
        -0.448542 -0.72674 0.351525
        0.824156 -0.980257 0.172193
        -1.21988 -0.752247 0.262461
        1.6364 -1.94112 -0.983544
        0.10679 -1.5948 -0.723169
        0.374459 -1.62455 -0.600009
        -0.00894822 -1.55607 -0.669058
        -0.0282304 -1.70011 -0.875918
        0.244246 -2.59862 0.716113
        -0.100529 -2.7514 0.367806
        1.51971 -2.55672 0.533162
        1.41255 -0.577993 0.72297
        1.43409 -0.974435 0.122074
        0.128032 -2.75233 0.0361931
        -0.809098 -2.74088 0.0380738
        -1.11724 -1.42097 -0.286429
        0.115949 -1.45669 -0.275375
        0.0558404 -1.31281 -0.39209
        -0.124649 -1.97467 -0.976222
        -0.422804 -1.31102 -0.418476
        0.141414 -2.73114 0.350197
        -0.388878 -2.73826 0.364718
        0.438213 -1.96157 -0.973491
        0.681781 -2.70229 0.354713
        -0.38332 -1.43987 -0.287104
        -1.93737 -1.28506 -0.437227
        -0.444245 -2.744 0.0387573
        -0.144639 -1.98027 -0.0779915
        0.442014 -1.96154 -0.0780907
        0.194577 -0.922458 0.16449
        0.387725 -0.565107 0.696294
        -0.00983407 -0.587288 0.689129
        -0.102445 -0.949612 0.126499
        0.096865 -2.66829 0.113642
        1.07767 -2.70946 -0.00730802
        -2.33251 -0.774614 0.577892
        0.451537 -1.14601 -0.546713
        0.115647 -0.469136 0.744143
        -1.98057 -0.680816 0.418934
        -0.00452514 -0.94005 -0.223358
        -0.167545 -2.11064 0.0251257
        0.367749 -1.4205 -0.663539
        -0.716731 -2.59102 0.404052
        -0.571758 -1.25934 0.281401
        0.921203 -1.00804 -1.14306
        -0.643419 -1.53602 -0.480858
        1.08269 -2.512 0.489659
        0.329887 -1.45706 -0.459906
        0.0548846 -1.59693 -1.15522
        -1.25678 -0.46484 0.783637
        1.26563 -1.36885 -0.848324
        0.670233 -2.01569 0.0587014
        0.406021 -1.56414 -0.646369
        -2.86942 -0.773486 0.352146
        0.670732 -1.79011 -1.09974
        0.991001 -1.9507 0.573756
        -0.620321 -0.202163 -0.448536
        0.954057 -1.83896 0.626366
        0.156497 -2.5943 0.67717
        0.133162 -1.22632 1.36435
        1.42322 -1.26044 0.743745
        -1.76855 -1.51864 -0.706423
        2.61431 -2.60956 1.65246
        -0.211477 -1.41539 -0.683066
        2.06657 -0.870568 0.00595052
        1.12537 -1.51098 -0.188001
        1.01672 -2.02642 0.623597
        0.453978 -0.304426 -0.224272
        0.31876 -2.04272 -0.857551
        1.03288 -0.871298 0.598794
        -0.428841 -2.05017 0.285883
        -1.73794 -3.26216 -0.127257
        0.274114 -2.84026 -0.601499
        1.31266 -0.658208 -0.225964
        0.332428 -0.371503 -0.723087
        0.570227 -0.77344 -1.99263
        -1.01957 -3.22031 -0.0276368
        0.867012 -0.350251 0.219576
        0.478004 1.31905 1.1407
        0.0516198 -0.884358 -2.1615
        -0.417393 -0.404646 0.20873
        1.38938 0.196282 -0.0844642
        0.325266 0.518097 1.59365
        -0.886478 1.01085 -0.418098
        -1.01459 1.706 0.656784
        0.10247 -1.51836 -0.418697
        -0.942036 2.67763 -1.0501
        0.565872 1.61372 -0.938931
        0.21856 1.53784 1.41555
        0.913274 -2.00375 0.179897
        -1.16175 2.11777 -1.00839
        0.663658 2.35071 -0.923212
        -1.18677 -2.26148 0.122205
        1.77624 -0.741034 0.313864
        -1.12726 1.15392 -0.742349
        -0.255927 0.556067 -0.00191882
        0.796828 1.55316 -1.63343
        0.0961962 0.290955 -0.129386
        -0.671033 0.524764 -0.45817
        0.713569 -0.115118 -0.301156
        0.979416 -0.530239 -0.12053
        1.45662 0.544372 0.293869
        1.79312 -0.181654 0.00981607
        -0.409079 -0.292165 -0.193195
        1.57332 0.600527 -0.240861
        0.380173 -0.556209 -0.337125
        2.10764 0.488474 0.113781
        -0.48319 0.965989 -0.0262901
        -0.255772 -0.608419 -0.252943
        1.27226 0.895733 -0.0611298
        2.64989 0.682326 -0.0379667
        -0.0685104 -0.38672 0.147627
        1.54267 0.766578 0.353665
        0.106091 0.696359 0.228465
        0.700489 0.0272535 0.176071
        -0.799232 0.412544 -0.0209991
        -0.31687 0.681495 -0.169022
        -0.0753871 -0.179326 0.0480311
        -0.695319 0.494946 0.208681
        0.137568 0.364455 -0.0890516
        0.0801866 -0.156061 0.0373628
        -0.129106 -0.515395 -0.124231
        0.140512 0.467316 0.230676
        -0.22321 0.475722 0.216776
        -0.398485 1.0042 0.0349068
        0.248935 -0.501658 -0.106796
        0.0907823 0.682088 -0.186351
        0.12311 0.988956 0.0528746
        -1.37368 0.995509 0.0562997
        -1.48707 0.663006 -0.161012
        -0.181978 0.380406 -0.0605557
        -1.31141 -0.221599 -0.0893712
        -1.3937 -0.558685 -0.181854
        -0.170177 0.483889 0.0628904
        -1.94123 0.361016 -0.531005
        0.369805 0.759864 -0.162905
        0.377079 1.45912 -0.318192
        0.0755916 -0.260364 -0.0886782
        0.515927 -0.579349 -0.0798773
        1.11493 0.625866 0.132639
        -2.12789 0.503 -0.206476
        -0.382197 0.915115 -0.108007
        1.0434 0.547289 -0.0665598
        -0.272005 0.518734 -0.291797
        -0.124436 0.605882 0.241155
        0.783152 -0.700235 -0.283323
        0.419388 1.22007 -0.0108681
        0.0272482 1.10407 -1.32906
        0.80186 -1.4786 -0.942102
        -0.391 -0.322298 -0.106991
        -0.528825 -1.31531 -0.62371
        0.10326 3.74279 -0.329148
        -0.134503 -0.793842 0.929422
        1.44456 -0.69205 0.0844458
        1.5215 -0.508786 1.29163
        -0.526705 -1.11792 -0.170186
        -0.169697 -1.88266 0.355167
        -0.173085 0.518785 -0.356705
        0.020665 0.432875 1.60515
        -0.510931 0.751473 -0.41841
        1.02539 0.176747 0.768188
        -0.305951 0.478543 0.0125396
        0.809977 0.462308 -0.684799
        -0.467059 2.25735 -1.40567
        -0.891069 1.41061 -0.366788
        -0.937762 -0.628758 -0.232747
        -2.04834 0.418722 -0.0625355
        -0.999106 0.745435 -0.200262
        -2.70812 0.97734 0.205737
        -0.628597 2.16063 -0.0833264
        -2.20397 1.76771 -0.470759
        -0.440745 2.14222 -0.79975
        -0.54876 1.74076 0.190965
        1.91183 1.49796 0.302798
        -0.815169 1.24613 1.01529
        0.0212339 3.79811 -1.00393
        0.384734 1.56955 0.786064
        -0.174724 2.41953 0.143469
        -0.993044 3.07243 0.503102
        -0.772086 0.463781 -0.14893
        -0.685042 2.69466 0.707482
        -0.720163 1.26583 -1.49911
        -0.636722 1.47036 0.843736
        -0.141857 2.56695 0.0839892
        -0.253447 1.87228 0.320238
        0.2082 3.65347 -0.697847
        0.260127 3.58275 -0.159101
        1.25225 1.83856 0.0862309
        0.334903 2.66954 1.006
        -0.390794 2.06221 0.0931614
        0.717303 2.36072 -0.0660889
        -1.05502 1.4147 0.518729
        0.00440518 2.84939 0.129558
        -0.310065 2.03924 -0.0216057
        -0.296332 2.12144 0.00416482
        0.507159 1.00647 0.48986
        -0.211485 2.4189 0.158941
        -0.769063 2.32764 0.267502
        0.191009 1.98235 -0.117382
        0.588347 2.697 0.0831776
        -0.356575 2.35265 -0.987661
        0.119086 2.52392 0.252808
        -0.670176 1.66114 -0.876395
        -1.37452 2.82651 0.129021
        -1.16812 0.860125 0.526598
        0.403032 0.910493 0.273969
        0.30408 1.64576 0.483112
        0.464675 1.58934 0.35213
        0.416819 0.943858 0.28082
        -0.137889 1.59899 0.347489
        0.418543 1.59585 0.364651
        -1.12195 1.97272 0.173572
        -0.135197 0.939134 0.227085
        -0.147433 2.54956 0.260448
        -0.138789 2.85495 0.167703
        0.371334 2.53426 0.244754
        0.410018 2.86442 0.152822
        0.12839 2.01181 0.170144
        -0.461924 2.00018 0.17303
        -0.429759 2.01566 -0.117822
        0.294253 1.99709 -0.104175
        0.140533 2.02366 -0.112125
        0.168327 1.46655 -0.66315
        -0.472976 1.07437 0.621743
        0.0102856 2.00935 -0.514108
        -0.807394 1.65663 0.629161
        -0.340893 0.982989 0.543935
        -0.940645 1.77598 0.581504
        0.203762 2.36233 -0.0331624
        0.0187665 2.79115 0.15012
        0.170827 3.13556 -0.175053
        -0.0920673 2.26189 0.309257
        -0.682195 2.30555 -0.0641232
        -0.462157 2.69489 0.168536
        -1.53652 2.05651 -0.0155506
        -0.347367 1.16029 0.588366
        1.08342 2.02721 0.115863
        -1.00441 0.950877 0.981975
        -0.271663 2.39397 0.185724
        0.492134 1.23663 -0.104975
        0.7505 2.128 -1.17519
        -1.32036 1.90025 0.30094
        0.66037 3.19783 -0.912491
        -0.374953 1.41217 -0.935598
        0.491212 2.50475 -0.637542
        1.08109 4.11509 -0.489412
        0.246171 3.04355 0.456831
        -1.50518 0.402148 -0.913852
        0.921402 3.26671 0.617751
        1.97926 2.37799 -0.111321
        -1.58011 0.712697 0.142352
        -0.172044 3.04964 -0.541242
        0.969683 3.18039 0.528406
        -1.13093 2.56531 2.06407
        -0.523312 1.01097 0.611044
        -0.866457 0.968783 -0.420139
        0.354218 1.22327 -0.371972
        1.01109 1.32095 0.67817
        -0.926054 0.230466 0.269982
        1.33592 0.949411 -0.348697
        1.28432 1.48503 -0.374325
        -0.520914 1.39326 -0.897457
        1.09214 2.917 -0.191022
        0.0214014 2.63647 -0.220348
        -0.931468 2.44013 -0.240057
        1.17978 3.4923 -0.723127
        -0.363068 2.78433 0.00426914
        0.0295403 2.47112 -1.14247
        -0.925381 3.15947 -1.10132
        -0.87457 2.49634 0.994976
        1.33597 2.19781 -0.342802
        -0.646014 1.85384 -0.357343
        0.320789 2.11365 -0.421999
        -0.450605 2.42522 -0.508885
        2.21075 2.16567 -0.372147
        -0.509548 1.78446 -0.439504
        0.946457 3.06748 0.143753
        1.4446 2.73403 0.158236
        0.280665 2.66507 0.138019
        0.856746 2.25133 -0.786537
        0.388891 1.82794 -0.386922
        -0.16212 1.84493 -0.393659
        0.361845 1.73946 -0.471889
        -0.157498 1.74466 -0.462926
        -0.365505 2.39844 -0.785816
        0.121174 2.39291 -0.776725
        0.638024 2.33877 -0.811677
        -0.347945 3.08597 0.114206
        0.122368 3.08511 0.111089
        0.644936 3.04674 0.150578
        0.0491881 2.14748 -0.489472
        0.887899 1.77143 -0.372004
        0.102303 2.20093 -0.614113
        0.48096 2.02945 -0.43997
        0.678467 2.05713 -0.453691
        -0.113253 1.73842 -0.480153
        -0.237292 1.91156 -0.921207
        0.281679 2.81585 0.414994
        -0.454591 2.78354 -0.00337289
        -0.436656 4.61372 0.182605
        0.495494 2.32727 -0.69254
        0.609283 2.44347 -0.44169
        1.80795 1.68905 0.139619
        -1.5088 -3.42079 0.602524
        0.0517202 -3.04364 0.28901
        -1.62278 -2.517 -0.00221404
        -0.337577 -2.17051 -0.0914415
        1.32203 -0.752802 -0.0235027
        1.46468 -1.1578 0.723818
        -1.34476 -2.56948 0.291202
        -1.31584 -3.08369 0.870649
        -0.703797 -2.53152 0.0135745
        -1.43404 -2.27515 0.595919
        -0.684347 -2.05636 -0.110442
        -0.169496 -2.19442 0.163427
        -0.750736 -2.0284 0.207737
        0.852553 -1.51512 0.1224
        -0.13038 -1.95062 0.459154
        -0.659092 -1.72671 0.426593
        -0.483989 -1.5654 -0.234025
        0.601294 -1.84299 0.501008
        -0.340027 -2.0651 0.215042
        0.166183 -2.0663 0.213646
        0.58468 -2.09515 0.228555
        -0.335891 -1.80484 0.494461
        0.176793 -1.81724 0.50125
        -0.129964 -2.09574 -0.133589
        0.419282 -2.10583 -0.117298
        0.397484 -2.01391 0.187422
        -0.230337 -2.25227 0.336137
        -1.52035 -2.6032 0.195178
        -1.60689 -2.38973 0.635204
        -0.141213 -2.72778 0.0192556
        0.303507 -1.98965 -0.0409231
        0.0808591 -1.35232 -0.10282
        0.562647 -2.8161 -0.123828
        0.86793 -1.97817 0.0112278
        0.664606 -2.39646 0.181895
        0.0324863 -3.5081 0.512872
        -0.0573873 -2.43755 0.331894
        -0.134339 -3.61913 -0.335424
        0.286676 -2.33588 -0.785126
        0.66227 -2.5263 0.43636
        0.799326 -0.91922 -1.21901
        0.0464041 -2.88542 -0.619653
        0.649759 -0.170675 -0.835972
        -1.2749 -2.42536 -0.27991
        -0.951939 -2.32132 0.462198
        0.59436 0.0355932 0.787595
        -0.143277 -3.91856 -0.0896852
        0.726421 -0.0805355 0.58439
        -0.506601 -1.23083 -0.276513
        -0.72696 -1.05271 0.423323
        -0.387592 -1.78564 0.597865
        -1.69006 -2.05703 0.51383
        -1.12945 -2.33509 -0.404237
        -0.67482 -1.24816 0.209863
        -0.566691 -2.10431 -0.646484
        0.26279 -2.2809 0.370685
        -0.423266 -1.64514 -0.600876
        -0.967928 -1.78428 -0.17145
        1.18381 -1.95028 -0.117803
        1.76545 -1.38324 -0.0764756
        -0.835045 -2.62379 0.640567
        0.354149 -2.88295 0.511379
        -0.359477 -1.98261 -0.0682085
        0.581035 -2.57165 0.295623
        1.04968 -1.89754 0.384441
        0.457312 -1.68243 0.105988
        1.12061 -0.950732 0.312238
        1.30426 -1.5162 -0.517708
        -0.676017 -0.634941 -0.375956
        0.243426 -2.22292 -0.064258
        -0.183352 -2.2167 -0.153095
        1.25078 -0.921044 -0.117649
        1.74822 -0.640927 -0.133221
        -0.333842 -1.65724 0.169591
        0.440003 -2.02993 -0.0852651
        -0.432216 -2.55673 0.159192
        -0.348815 -1.59683 0.12292
        0.578847 -1.50986 -0.544876
        -0.00227154 -2.55889 0.195028
        0.154888 -1.5321 0.0440171
        0.139112 -2.58272 0.175272
        -0.136675 -2.60745 0.284384
        0.143413 -1.50758 -0.555177
        -0.160247 -2.04627 -0.0808714
        0.210473 -1.48145 -0.540334
        0.449519 -2.60231 0.301748
        0.100078 -0.908652 -0.0773824
        -0.0688292 -0.939776 -0.088439
        0.804904 -0.6884 0.231634
        1.09371 -1.42276 0.0640131
        -0.417251 -1.76257 0.240322
        -0.0822082 -2.35153 0.0517173
        0.628097 -2.85628 0.541829
        -0.781205 -2.79114 0.504679
        0.952521 -2.26863 -0.0211499
        1.03909 -0.784791 -0.199595
        0.964079 -1.67713 -0.63132
        -0.310131 -1.97089 0.776892
        0.0439917 -1.9949 -0.0683763
        -0.930921 -2.25524 0.151719
        0.0731828 -1.75094 0.0877837
        0.127169 -1.50581 0.0129061
        -0.531584 -1.63422 -0.583947
        -1.08271 -0.751542 -0.218422
        1.1059 0.454697 -0.377325
        0.580723 -2.13391 -0.465378
        0.521622 -2.31125 0.162045
        0.84368 -2.35969 -0.336014
        -1.16246 -2.63023 1.06092
        -0.0339125 -1.17632 -0.21436
        0.554772 -1.81491 0.24917
        -0.393893 -1.17447 0.157611
        0.4673 -2.34229 -0.566518
        1.5753 -1.50754 0.204726
        -0.108502 -0.822767 0.924489
        0.625136 -1.52128 0.995642
        -1.42095 -1.6944 -0.411087
        -0.623378 -0.701698 -0.212086
        0.878711 -1.1378 0.486785
        0.593453 -1.73116 1.10661
        -0.0367235 -1.63529 -0.309066
        1.71475 0.636854 -0.997099
        0.594413 -1.06826 -0.205308
        0.1583 -1.54445 1.92066
        -0.176062 -1.21819 0.673576
        0.986366 1.05892 0.161174
        -0.0928009 2.86414 0.412143
        -0.0234175 2.45372 -0.55848
        0.287985 -0.269448 0.490472
        -1.21887 -0.370162 0.0567836
        1.24589 0.0502029 0.453202
        -0.157858 -2.79761 1.34528
        -0.758675 1.78088 0.760349
        -0.888918 1.99466 0.585553
        -0.432346 -0.785494 -0.749827
        -0.175684 -0.384926 -0.823275
        1.50657 1.33345 0.419106
        -0.956934 1.01647 -0.0269745
        -0.863939 0.513201 -0.502097
        0.906223 0.717408 0.0318039
        -0.270342 -0.209393 -0.270428
        -0.996607 0.672373 0.127408
        1.15394 0.992882 -0.139816
        -1.1127 0.0716619 -0.0891795
        0.654669 0.875222 -0.423417
        0.207826 -0.893898 0.0844626
        -0.869485 -0.646382 -0.158768
        0.00192636 0.094682 0.296844
        0.655989 -0.865596 0.0915771
        0.42403 -0.294138 -0.342248
        -0.947953 0.948512 -0.0512201
        -0.991958 0.845824 -0.525942
        -1.17016 0.664362 0.00415577
        -0.109292 1.1446 -0.217466
        -0.244009 -0.650165 -0.0984893
        -1.0906 1.10723 -0.216171
        -0.16253 -0.626274 -0.0956055
        0.307854 0.489374 0.1671
        0.146703 0.469045 0.148443
        -0.167717 -0.179966 -0.252289
        0.0770296 1.16862 -0.206038
        -1.35292 -0.154025 -0.251536
        0.759505 0.936297 -0.423074
        -0.873003 0.917614 -0.424998
        0.136801 0.93267 -0.423749
        0.0661677 0.766191 0.0285772
        0.9201 0.500354 0.295608
        0.390763 0.339554 -1.02264
        -0.311126 -0.218346 -0.274679
        0.909311 -0.83915 -0.0447327
        -1.00103 -0.897658 0.0879327
        0.106881 0.147544 -0.284402
        0.858301 -0.0543188 -0.057682
        -1.15521 1.50433 0.409053
        0.139315 1.49466 -0.839959
        0.54147 0.921867 -0.0306137
        -0.204054 -0.178371 -0.168115
        -2.17541 0.794244 -0.450874
        0.231417 0.875879 -0.434981
        0.121908 2.3138 3.56886
        -0.36355 0.185214 -0.0060635
        -1.11906 -1.33245 0.0485313
        0.231848 1.48483 -0.168896
        -0.737903 1.63122 0.320393
        0.828932 -0.199842 0.876198
        0.888763 -1.79137 0.470134
        0.807472 -0.578741 -0.3625
        -0.619778 -1.20575 0.642261
        0.2735 1.32655 -1.37815
        -0.445447 0.172951 -0.120174
        0.714347 -2.22446 -0.128781
        -0.69008 1.14776 0.193359
        -0.482853 -0.831362 -0.342041
        -1.38261 0.558964 0.391726
        -0.00474566 0.847787 -0.057772
        -0.180952 1.37573 -0.645705
        -1.59211 -1.04849 -0.103386
        -0.193024 2.24323 0.158786
        0.785719 2.43127 -0.098769
        -0.508795 2.20829 -1.23901
        -0.524867 2.07834 -0.3603
        1.58299 1.98678 0.524865
        -0.285113 1.85456 0.406769
        -0.139325 2.57255 0.383979
        0.609257 0.891696 0.389762
        0.59719 1.30552 1.3745
        -1.06033 2.41318 -0.00254737
        0.250319 2.27171 1.0249
        -0.147551 1.61926 0.351844
        1.17894 1.95077 -0.00738071
        0.557794 2.3771 -0.0662855
        -1.09818 1.637 -0.656588
        0.105127 0.577021 0.626497
        -1.57766 1.21627 -1.12702
        -1.25109 2.20586 -0.308394
        0.341342 2.20993 -0.357637
        -0.240948 2.68979 0.815183
        -0.437491 2.43772 0.00287527
        0.330806 1.7044 0.117537
        -1.05414 1.77835 -0.173026
        -1.12408 2.39125 0.637776
        1.74454 2.15251 0.607801
        0.65389 2.38438 0.248069
        -0.238963 1.7705 -0.00174884
        0.089123 2.06574 0.218665
        0.643087 1.72243 -0.169145
        0.099575 2.22585 0.0516052
        -0.363063 2.35283 -0.465986
        0.551948 1.93372 0.230488
        0.297922 1.89543 -0.247754
        -0.124135 2.24438 0.131244
        -0.146126 2.42536 -0.456439
        0.411495 2.39987 -0.444586
        0.331408 1.68683 -0.137584
        0.681673 1.74516 -0.0111124
        -0.152211 1.66184 -0.100567
        -0.140503 2.28585 0.0704938
        0.145527 2.27439 0.0982981
        0.428747 2.26778 0.070981
        -0.440737 2.27545 0.108305
        1.13095 2.44809 0.323574
        -0.000332104 1.91074 -0.272302
        -1.35476 1.87682 -0.324067
        -0.058834 2.2784 -0.216332
        -0.409705 2.22869 0.215764
        -0.74345 2.4953 0.121919
        -0.44368 1.56854 0.295857
        -0.753653 1.67138 0.272637
        -0.063717 1.97836 0.305057
        0.358905 2.01529 0.24099
        0.877487 2.67809 0.919541
        -1.26478 1.71746 0.0953249
        -0.27459 2.07751 -0.130751
        0.110802 1.54267 -0.0969395
        1.17207 2.21172 -0.52245
        -0.871423 0.420917 0.0288986
        0.586883 2.58805 -0.0780481
        1.29913 1.39616 -0.536731
        -0.312828 2.92941 -0.689202
        -1.93293 1.45573 -0.111899
        -0.430339 -0.892948 0.54867
        0.00361892 2.93394 -0.00401328
        0.367168 3.81747 0.588273
        1.24172 1.13007 -0.593992
        -0.177172 1.03574 -0.00105099
        -1.05686 0.601224 0.7975
        -0.0815362 2.90313 0.1594
        -0.412946 1.4204 1.42218
        0.965459 2.22687 0.38347
        0.768426 2.65168 0.4343
        -0.374074 1.64177 0.119373
        0.879289 1.4017 0.262812
        0.0114998 2.51543 -0.453538
        -0.576155 2.52759 -0.381891
        0.125623 3.88585 0.295319
        0.107564 3.09042 0.243886
        -0.601773 2.3243 -0.00927449
        1.64739 2.69117 -0.269426
        0.111912 1.45663 0.53767
        -0.0599649 2.09593 0.389422
        -0.164963 2.30681 0.0282701
        0.340779 2.30079 0.0269691
        -0.396537 2.25456 0.398742
        0.127047 1.77674 -0.00736413
        0.111047 2.26293 0.413727
        -0.379235 1.7748 -0.013443
        0.666844 2.19719 0.416014
        1.34159 2.67002 0.115282
        0.141418 2.35909 -0.0705308
        0.712527 2.22549 0.0513151
        0.592881 1.73533 0.478112
        -0.713455 2.75443 0.0112504
        1.55808 3.11921 -0.601189
        0.830749 3.06826 1.02146
        -1.39735 -2.48634 0.018649
        0.137064 -1.16752 -0.264939
        -1.44674 -2.53997 -0.0591841
        -0.0918258 -1.41774 0.562523
        -0.90872 -2.47406 0.11837
        -0.709439 -2.22431 -0.314713
        1.10987 -0.729192 -0.591439
        0.365102 -3.67439 0.400136
        -0.237379 -3.73862 -0.174932
        0.799774 -0.52302 0.62665
        -1.19585 -1.36614 -0.157665
        -1.31524 -1.5043 0.354368
        -0.692865 -2.13785 -0.234962
        0.464724 -1.24634 -0.175006
        -0.662773 -1.11259 -0.160069
        -0.692462 -2.30204 0.103529
        0.370645 -1.33218 0.405902
        -0.64779 -1.16299 0.383819
        -0.4638 -1.86415 -0.137249
        0.666759 -1.90932 0.114451
        0.755561 -1.81355 -0.168107
        -0.392873 -2.04303 0.0713949
        -0.363801 -1.13424 -0.169474
        0.155998 -1.14282 -0.17217
        0.641972 -1.1537 -0.172728
        -0.357132 -1.18192 0.38231
        0.159292 -1.18933 0.385986
        0.641705 -1.20882 0.390845
        -0.123545 -2.19287 -0.221332
        0.387228 -2.1856 -0.230788
        -0.12317 -2.35115 0.101562
        0.379727 -2.35041 0.10275
        0.0507312 -1.55047 -0.153645
        -0.136636 -1.69205 0.321868
        -0.142603 -1.99407 0.192
        -1.62964 -1.52701 0.444754
        -1.81417 -1.39365 -0.217314
        0.0429556 -1.75957 -0.0238972
        -0.148386 -2.13198 -0.221812
        -0.27516 -2.31018 0.110734
        0.133232 -1.9754 -0.253238
        0.0661391 -1.89532 0.0668804
        -0.0252631 -2.33478 -0.110973
        0.373775 -1.96235 0.351908
        0.122869 -1.81025 -0.100209
        -0.158946 -1.8022 0.0503715
        0.0907372 -3.98209 -0.171122
        -0.0339689 -4.09954 0.491274
        -0.0444185 -2.38107 0.0851603
        -0.00243875 -2.5829 0.211183
        0.946661 -1.72986 -0.215007
        0.986824 -1.82133 0.41566
        -0.143342 -2.25617 -0.0675595
        -1.56045 -1.97847 -0.182574
        0.711346 0.127254 0.0464961
        0.530001 -1.19312 0.097999
        0.503679 -1.50573 -0.465808
        -1.5409 -1.96295 0.420213
        0.945571 -0.406633 -0.176608
        0.0784334 -3.18537 0.0338181
        0.376507 -0.56558 0.375486
        -0.0987392 -3.14075 -0.0774989
        0.261209 -1.43915 0.117624
        0.1695 -1.09649 -0.36727
        -0.193262 -1.79952 -0.0922803
        -0.167835 -1.79224 0.0605576
        -2.34207 -1.25246 0.481616
        -2.68729 -1.20172 -0.761733
        -1.43761 -2.03085 -0.0934761
        -1.16266 -2.5773 -0.262157
        0.130286 -2.28109 -0.741438
        0.179301 -2.0366 0.672458
        -0.971698 -1.8308 -0.437768
        -0.876792 -1.98905 0.159307
        1.14313 -1.32581 0.393178
        -0.371821 -2.05849 -0.352905
        0.664465 -1.45244 -0.0791487
        0.0777847 -2.09377 0.0845682
        1.04997 -2.44516 0.0665871
        -0.270374 -2.2063 0.091628
        1.07686 -2.45818 -0.0301284
        -0.133895 -0.874933 0.120312
        -0.224565 -2.33936 -0.0362285
        -0.315862 -2.33261 -0.0111245
        0.681302 -1.43819 -0.112527
        0.450761 -2.44882 -0.0261677
        0.0927373 -1.96436 -0.338983
        0.805754 -1.18099 0.272446
        0.612149 -1.44113 0.389459
        1.39754 -1.32439 -0.116294
        0.44386 -2.48067 0.0848821
        -0.439901 -0.959282 0.0976062
        1.04375 -1.04021 -0.428983
        0.980384 -1.02523 0.107355
        0.475758 -0.892026 -0.376833
        -0.46769 -0.945849 -0.366236
        -0.390886 -1.28695 -0.111334
        -0.13923 -2.47156 0.0634263
        -0.428811 -2.16825 -0.441796
        -0.0731417 -1.28758 0.407571
        0.141243 -2.17803 -0.44267
        -0.198772 -2.12258 -0.455774
        -0.406778 -1.26886 0.401579
        -0.429694 -2.28931 0.118634
        0.140339 -2.29618 0.117899
        0.432192 -2.45836 0.0576811
        -0.222046 -2.23998 0.120586
        0.140875 -1.30275 -0.109753
        0.140666 -1.28105 0.401026
        -0.139995 -2.48452 -0.0302425
        -0.0348265 -1.30059 -0.113919
        0.430912 -2.47025 -0.0273058
        -0.085581 -1.06505 -0.41383
        -0.0544342 -1.0455 -0.419239
        -0.0886614 -1.04418 0.108666
        -0.219293 -1.02225 0.107286
        -0.414839 -1.42277 -0.122471
        1.15133 -1.435 -0.100864
        1.36151 -0.609679 0.120915
        0.154644 -1.99519 -0.107621
        1.01398 -2.42687 -0.0424182
        0.983434 -2.43551 0.0893483
        -0.15932 -1.99587 -0.439374
        1.19692 -1.92083 -0.414168
        0.97874 -0.922229 0.0950143
        -0.170983 -2.11918 0.118557
        1.15597 -2.02774 0.122405
        1.2627 -0.689807 -0.417483
        -0.0184489 -2.53802 0.0387452
        0.949825 -0.963405 -0.369306
        0.596151 -2.26655 -0.0452242
        -0.414593 -1.39673 0.431831
        1.17134 -1.38472 0.370969
        0.45641 -2.54963 -0.0464347
        -1.08749 -0.999895 -0.406741
        -0.980073 -0.984177 0.109148
        -0.0272168 -0.826567 -0.692636
        0.937553 -2.59246 0.279025
        0.433352 -2.10481 0.121523
        -0.319037 -0.592656 0.42923
        0.749293 -1.76024 -0.117084
        0.542875 -1.7622 0.4402
        -0.838576 -2.29807 -0.398686
        -0.171829 -1.79022 -0.0482266
        -0.302116 1.04236 -0.0853237
        -0.171939 -2.03717 -0.185325
        -0.816692 -0.78447 -0.0639882
        0.0400164 -2.75388 0.127577
        0.108088 -2.02042 0.118364
        -0.123928 -1.17801 -0.388007
        0.940508 -2.52445 -0.152975