<?xml version="1.0" encoding="UTF-8" standalone="no" ?>
<VTKFile byte_order="LittleEndian" type="UnstructuredGrid" version="0.1">
  <UnstructuredGrid>
    <Piece NumberOfCells="0" NumberOfPoints="1764">
      <PointData>
        <DataArray Name="velocities" NumberOfComponents="3" format="ascii" type="Float32">
        -0.0916605 -2.29907 0.753982
        -0.341631 -2.75684 0.301136
        0.704432 -1.18665 -0.78314
        0.359037 -1.44694 0.106467
        -0.822448 -1.4231 0.858097
        -0.0119661 -1.05529 -0.678811
        0.00208803 -1.22976 0.233409
        -0.282375 -0.662811 0.532091
        -0.0423701 -0.910839 -1.22039
        -0.0192521 -2.11353 0.186209
        0.340645 -1.52764 -0.496059
        -1.25695 -1.78344 -0.864041
        1.56495 -1.71281 0.0176086
        0.859084 -1.39459 1.08634
        0.260308 -0.700244 0.30226
        -0.265802 -1.3062 0.263581
        0.767733 0.580404 1.81191
        0.641607 -1.88795 0.94543
        -0.364662 -0.500089 0.676577
        -0.905118 -2.09597 -0.201742
        -1.10944 -1.28051 -1.28223
        -0.0953656 -1.86646 0.72307
        -0.667909 -2.55158 -0.00210724
        0.695885 0.0912172 0.635132
        0.295853 -1.24942 -0.983716
        -0.683418 -1.23115 -0.351756
        -0.00917037 -1.62727 0.362247
        1.07227 -1.01997 -0.969963
        -0.657947 -1.48526 -0.0135894
        -0.943842 -0.860817 -0.17867
        -0.215857 -1.74798 0.529242
        0.301844 -1.79843 0.433533
        -0.375123 -1.15659 -1.46259
        0.134264 -0.812958 -0.83167
        0.192107 -1.45955 0.235435
        0.866211 -0.355414 -0.789074
        -0.968224 -1.34773 1.79563
        1.11996 -0.37861 -0.375392
        1.43394 -1.24846 -1.61257
        0.817251 -1.17618 -1.53372
        -0.706468 -1.24044 -0.0385546
        0.00212258 -0.236273 0.436112
        0.915414 -1.70217 -0.33862
        0.506425 -2.56543 1.11983
        -0.599709 -1.17651 -1.05703
        0.430058 -0.204932 -0.448908
        0.252815 -3.01403 1.26817
        0.748468 -1.81386 0.248742
        0.286701 -0.851914 0.62229
        -1.18705 -0.755182 0.352683
        -0.915863 -1.22472 -1.01218
        -0.318464 -1.1084 0.243391
        0.14257 -1.41232 0.158148
        -0.282322 -1.42114 -0.356989
        1.71358 -2.08854 0.909489
        0.865191 -2.02735 0.962887
        0.653557 -3.20286 -0.373869
        0.319323 -1.23539 1.08196
        -0.537509 -1.62131 -0.350276
        -0.755403 -1.2707 0.307533
        0.383105 -2.68948 1.26025
        1.37192 -0.877126 0.455648
        -0.841061 -1.4051 0.222663
        0.583292 -2.2327 -0.180706
        0.889541 -1.83487 -0.563084
        0.581663 -0.318538 0.117358
        -1.14679 -2.14829 -1.29342
        0.637089 -2.26316 -1.08857
        0.108631 -2.37355 -0.324158
        -0.469831 -0.641109 0.0642338
        0.294017 -1.12806 -0.0431349
        1.25175 -0.480083 0.0473566
        0.204551 -1.89783 -0.345668
        -0.145592 -1.86331 -0.87219
        0.133595 -1.86763 0.0691659
        0.594885 -0.897318 -1.27934
        0.723808 -0.549203 -0.0995655
        -0.407278 -0.506642 0.774988
        0.574427 -0.639605 0.528851
        -0.537311 -0.527231 0.284388
        0.0638994 -2.44151 0.386835
        -0.392887 -0.590268 0.478776
        0.447612 -0.468053 -0.515975
        0.465613 -1.19941 -0.619558
        -0.0613723 -1.03033 1.25505
        -0.28774 0.345795 1.2206
        0.891367 -1.15342 -0.865482
        -1.55457 -1.35186 1.30546
        -0.358961 -2.14222 0.37704
        -0.704825 -1.32937 -0.907789
        0.664159 -1.14544 0.48969
        -0.185822 -2.04093 -0.189435
        -1.57124 0.299114 -0.235816
        0.552632 -2.49109 -1.16551
        -0.434181 -0.634898 0.652995
        0.493024 -1.62607 -0.0945896
        -0.762766 -0.170903 0.258945
        -0.535718 -1.33379 0.107779
        -0.385406 -0.858634 0.793584
        -0.302105 -1.86744 -1.74896
        0.480725 -1.79142 0.576796
        -0.475732 -0.0775983 0.88058
        0.954074 -1.55749 0.25032
        0.0225243 -1.14816 0.422539
        -0.352686 0.234188 0.692926
        -1.34638 -2.60007 0.372937
        -1.32606 -1.55343 0.835945
        -0.481311 -0.808562 0.697614
        0.388524 -1.85746 -0.701101
        -1.17776 -0.500389 -0.0989467
        0.302481 -1.6817 1.48096
        -0.324696 -2.67351 -0.178343
        1.24785 -1.40228 0.18732
        -0.974065 -0.901757 -0.0922423
        -0.0691493 -1.10041 -0.369708
        -0.377929 -1.48987 0.541988
        0.925146 -2.33524 -0.812286
        -0.530194 -2.39311 -1.64803
        -1.15853 0.800234 -0.124467
        -0.308361 0.0965299 0.688502
        -0.707152 -0.594454 -0.723843
        -0.361952 -0.884635 0.751798
        -0.0870874 -1.04954 -0.891722
        0.0867792 -0.724952 0.481956
        -0.898902 -1.73266 -0.756957
        -0.26835 -0.952046 0.13598
        -0.315243 -1.03312 0.633243
        -1.31792 -2.88079 -0.354534
        0.356504 -2.62359 -0.109856
        -0.382235 -2.18212 0.418618
        0.202604 -1.60995 1.27949
        -0.210873 -2.86902 -0.545451
        0.0344962 -1.77509 0.0568617
        -0.149978 -1.01425 0.00366661
        0.165142 -1.29352 0.661784
        -2.06705 -1.50564 -0.340821
        -0.743014 -0.573185 -0.456416
        -0.472365 -0.401977 1.86448
        0.589006 -0.243599 -0.994998
        -0.396934 -1.31732 0.0226621
        -0.632049 -1.30143 0.841407
        -0.085952 -2.19278 -1.40152
        1.25281 -0.984432 -0.549051
        0.0324393 -1.44191 0.436571
        -0.63309 -2.47145 -0.209068
        -0.108356 -0.447222 0.39131
        -0.550332 -0.750195 -1.09778
        0.101742 -2.00761 -1.47534
        0.641609 -1.14867 -1.01585
        -0.176026 -0.762717 1.43319
        0.868125 -1.53772 0.150582
        -0.43581 0.784884 -0.973673
        -1.02405 -1.80062 1.06269
        -0.262049 -0.771725 -0.972588
        -1.05528 -0.977656 0.34074
        -1.58621 -1.69431 -0.312277
        0.31801 1.15927 -0.432842
        1.16067 -0.511746 0.512426
        0.192509 -1.49046 -0.249102
        -0.181798 -1.51662 1.27739
        0.250326 -0.0731271 -0.124902
        0.76713 -1.25258 1.21071
        -0.50397 0.271226 0.920913
        -0.174256 -0.423518 -0.490021
        0.376712 -1.27353 0.201321
        -0.326134 -0.253707 -1.07694
        -0.705576 -0.906826 -0.0616214
        0.481765 -0.636424 0.977996
        -0.824589 -2.13544 0.101418
        -1.50544 -0.596993 0.844041
        -1.19046 -2.23523 -0.539974
        1.24205 -1.70579 -0.334144
        -0.621139 -2.43541 -0.193003
        -0.29111 0.0990481 0.80248
        -1.41343 -2.75181 -0.430948
        0.41607 -0.369462 -0.108309
        -0.413411 -1.3704 1.04361
        0.269022 -1.00632 0.111939
        -0.267175 0.224545 -1.21866
        0.666123 -1.22562 -0.263945
        -0.699985 -0.826974 1.33996
        -0.861593 -1.46097 -0.0337505
        1.87559 0.275852 -0.571541
        0.784758 -0.321771 -0.100399
        0.745958 1.12586 0.617733
        -0.469833 1.6111 0.78705
        -0.0683662 -0.764272 -1.02898
        0.659188 1.21054 0.00320943
        -0.455647 -0.824707 0.420548
        0.472648 -0.205691 0.294363
        -0.34412 1.25814 0.30384
        -0.0494845 -0.302616 -0.534931
        1.11922 1.33735 -0.966634
        -1.12227 0.95966 -0.315504
        0.110273 0.922502 1.13756
        0.15288 -0.0358045 -1.24476
        -0.0681764 0.355834 0.316335
        0.286883 1.13742 1.30957
        0.149596 1.11412 -1.08956
        0.846596 1.37251 0.382868
        1.5827 1.11009 -0.525743
        0.256364 0.499527 0.267065
        1.55883 1.24626 0.199953
        -0.0181608 2.05864 -0.847067
        0.251896 0.445963 0.758217
        1.57457 0.917224 0.500487
        -0.618125 0.823102 0.959139
        0.90934 0.933088 -0.436289
        1.15028 2.20336 -0.502129
        0.465546 0.788614 1.32485
        0.421257 -0.562101 -0.0851463
        0.13598 1.10586 1.21495
        -0.0892755 2.27043 -0.0721703
        0.12034 2.30833 -0.82908
        -0.151744 -0.0428331 -0.745984
        -0.883137 2.2485 1.32129
        -0.910505 2.27161 0.427778
        -0.207137 0.495697 0.207942
        -0.2566 1.73048 -1.21722
        -1.55363 1.39984 1.11284
        1.30505 1.44199 0.192984
        0.151974 1.79047 1.29333
        0.092232 1.26005 0.0901484
        1.7043 2.51611 -1.09575
        -1.33708 2.30785 -0.385565
        0.160564 1.00917 -0.0695379
        0.433487 1.82086 -0.152605
        0.293313 0.737614 0.0673431
        -0.817581 0.860562 -0.429498
        0.0992554 2.41147 0.049234
        -1.53761 1.01343 -0.367721
        -0.212875 1.1101 0.811553
        -1.06139 0.0584182 0.0872015
        -0.0293229 1.46346 -0.152032
        0.392232 2.14386 -0.840294
        1.9088 1.66648 0.469241
        -1.62123 1.05503 0.790434
        -1.26403 1.53206 -1.07592
        0.515963 1.88771 -0.55802
        0.863156 0.727012 0.214252
        0.616677 1.23989 0.525368
        -0.372345 1.08998 -0.497226
        -0.200463 1.65705 1.05842
        0.497761 1.53566 0.625511
        1.22637 0.235552 0.111023
        0.0962831 1.68317 1.03279
        -0.0258397 1.00382 0.356873
        -0.424335 2.8484 0.0834861
        -0.788852 1.26762 -0.482059
        0.238415 2.67824 0.93463
        0.471499 1.97578 0.376148
        -0.201629 1.41334 0.208952
        0.0142799 0.528624 -1.18616
        0.711243 2.56631 0.712335
        -0.0283371 0.599971 -0.814332
        -0.0713976 2.0568 -0.627382
        -0.499512 1.11582 -0.171448
        0.826844 0.408955 -0.335026
        0.969713 0.726172 0.636639
        0.937262 0.969453 -0.452104
        -1.22887 1.52443 -0.185528
        -0.180278 0.577899 -0.999605
        -0.662421 1.41492 -0.127406
        -0.037517 0.735093 0.406092
        0.225175 0.918546 -1.0757
        0.114474 0.896016 0.47201
        0.0627852 -0.271758 -0.10514
        0.656844 2.08717 1.39573
        -0.0853945 0.518087 0.77787
        0.387336 1.84239 0.191355
        1.14294 -0.346715 0.367291
        -1.05598 1.06877 -0.58128
        0.0888131 0.171166 1.05166
        -0.0484804 1.2442 -0.433211
        0.0522665 0.0736207 -1.25923
        0.780167 0.514279 0.144272
        0.456758 1.98213 0.52852
        -0.861785 1.49494 0.102626
        0.773658 1.25082 -0.119039
        0.388131 1.31653 -0.584196
        0.624362 0.0428666 -0.168666
        0.732878 1.39542 0.00794428
        -0.551776 2.13839 0.010492
        1.89969 0.905473 0.0748736
        -0.345844 1.56747 0.726936
        -0.613497 0.821784 -1.09821
        -1.31794 0.687347 0.0503147
        0.6879 1.41204 -0.0297535
        0.627062 1.55573 -1.3234
        -0.591289 1.42252 -0.140359
        0.645911 0.852934 0.898739
        -0.174505 2.5769 -0.439808
        -0.119683 -0.843189 0.410138
        -0.446625 1.46297 -0.525946
        -1.49389 2.09262 -0.722838
        0.132965 2.71887 0.471074
        0.183865 1.29265 0.955889
        0.626696 0.456015 -0.661495
        -0.680639 0.521174 0.0944618
        1.104 3.3405 -0.488336
        1.65134 0.996662 0.0802283
        0.784301 2.33889 -0.854291
        0.112095 1.01651 -0.0917508
        -0.403601 0.713614 0.52124
        -0.0796369 1.49471 0.0571586
        -0.0513011 1.09512 -1.60506
        -0.296149 1.13407 1.1167
        -0.405969 2.48717 0.275557
        0.0918703 0.631552 0.436217
        0.665446 0.714447 0.195578
        -0.71874 2.33644 -0.638639
        1.01576 0.973412 -0.139579
        -0.792314 1.3875 -0.463807
        0.490678 0.22313 -0.695
        -0.743442 2.12829 -0.942895
        -0.946167 1.21883 0.46074
        -0.0986547 2.50123 1.37287
        -1.28579 0.940463 0.94309
        -0.74597 1.60148 -0.240655
        0.742131 1.60147 -0.811457
        -1.20546 1.47485 -1.90681
        2.02109 2.23515 1.25387
        0.465799 1.69393 1.4131
        -0.24768 1.3085 -1.61934
        -1.41029 1.21187 -0.955874
        0.76977 1.67339 -0.151713
        0.203633 2.02509 -0.267102
        -0.120528 -0.402234 0.779927
        -0.317947 0.510763 -0.273697
        -0.246466 0.452693 0.669728
        -0.330256 2.20058 -0.963124
        0.379914 1.41674 1.26196
        0.540843 1.14281 -0.561539
        -0.155158 0.390286 -0.53697
        0.799189 1.02044 -1.12905
        -0.122295 1.45017 -0.34651
        -1.05698 1.30246 -0.813516
        -0.112012 0.97215 0.0732546
        -0.183151 2.16546 0.922474
        -0.767269 1.89689 -0.539858
        -0.726416 1.92392 0.754987
        1.14348 1.16379 -0.318088
        0.240371 1.20317 0.50295
        -0.135058 0.179984 -0.0868501
        -0.780447 1.3566 0.469922
        1.75826 0.262305 0.179637
        -0.725148 1.37527 0.59673
        -0.0306252 0.887054 0.96879
        -0.166017 1.20794 0.69348
        -0.396894 1.46123 0.395867
        -0.557592 1.76344 -0.319548
        -0.700899 0.759754 1.22242
        -0.217336 0.0308353 -0.667568
        -0.371684 1.17217 -0.608026
        0.0828268 2.07969 -0.359206
        -0.751033 1.04913 -1.0226
        -0.80125 1.75409 -0.369205
        -0.640453 1.12056 0.578338
        0.671952 0.681569 0.15085
        0.258072 1.55063 0.33447
        -0.165694 1.25128 -0.932977
        0.384572 1.15652 0.371713
        -0.399366 1.4061 1.06822
        -1.44695 1.57431 -0.122573
        -0.350922 0.280245 -0.0376411
        -0.995455 0.917613 -0.601416
        -0.448642 1.72222 -0.580278
        0.704271 1.03686 -1.46528
        -0.59239 2.01367 -0.155398
        -0.343983 -0.00129098 -0.967583
        0.120571 2.73351 0.300463
        0.386977 1.81377 0.501812
        -0.90099 1.33145 0.506297
        0.00688971 -0.91718 -0.636135
        -0.0336633 -1.59824 -0.537196
        0.776352 -1.35276 -0.270444
        -0.205036 -1.66468 -0.558015
        -0.24113 -1.43128 1.15652
        0.0027398 -1.79519 -0.204675
        0.862608 -1.57013 0.667717
        -0.89543 -1.23393 0.0554007
        0.848938 -1.67976 -0.110369
        -0.978414 -1.77286 -0.408386
        0.169826 -0.853825 -0.660726
        -0.569505 -0.971573 -0.262357
        -0.343983 -1.61534 0.756803
        0.185166 -0.985259 -0.405502
        1.46716 -2.5995 0.401898
        0.418112 -1.40077 -0.168079
        0.403198 -1.16856 0.386253
        -0.163312 -0.156628 -0.558546
        0.918534 -1.73134 -0.30594
        -0.911578 -1.93225 0.263333
        0.371879 -0.295417 1.38507
        -0.236252 -1.56283 -0.137352
        0.920106 -1.43381 0.62873
        -0.204659 -1.17624 0.145518
        -0.772624 -1.12971 -1.04218
        -0.566383 -2.24912 0.500975
        -0.170053 -1.32952 -0.551421
        -0.149654 -1.1808 0.195881
        -1.35136 -0.657134 0.8543
        -0.595403 -1.84972 -0.477173
        -0.280641 -0.300812 0.262894
        0.789991 -3.30334 -0.992232
        -0.514265 0.189439 -0.187385
        -0.452939 -1.37059 0.988675
        -1.45557 -1.54181 -0.901569
        0.730306 -0.562901 0.0332185
        0.331063 -0.715243 1.11475
        -0.978535 -1.43812 1.40192
        0.664828 -1.7027 -0.233461
        0.812485 -1.92334 -0.639911
        -0.11659 -0.319233 0.564708
        1.55098 -2.16036 -1.18154
        0.309468 -0.864894 0.0471494
        -0.150724 -0.284478 -0.848964
        -1.11204 -2.19974 0.107356
        1.33833 -0.140492 1.25044
        0.559265 -2.13312 -0.911846
        -0.225271 -1.06022 -0.432572
        -0.220369 -0.933748 0.747401
        -0.910796 -1.3774 -0.0545606
        1.07495 -2.79174 -0.894534
        -1.10849 -0.965386 0.577948
        -0.306621 -0.940377 -0.589933
        0.122632 -1.34324 -0.042986
        -0.710941 -1.79074 0.119857
        -1.1039 -1.07697 1.03767
        -0.419606 -0.957499 -1.58556
        0.473296 -1.90046 0.377761
        0.0227169 -2.2214 -0.285265
        -1.21421 -0.167955 0.0693587
        0.178182 -1.1537 0.544389
        -0.809337 -2.25947 0.374651
        -1.11316 -1.39738 -0.413163
        -0.0382391 -2.89824 0.449882
        -0.0335094 -0.561917 -0.319631
        -0.025285 -1.75343 -0.804626
        0.412228 -0.437237 -1.62791
        0.431475 -1.59007 -0.904999
        -0.591419 -2.04685 0.695137
        -0.551635 -1.8266 0.215968
        -0.282953 0.0402899 1.0608
        0.608716 -0.62682 -0.611607
        -0.352074 -1.70024 0.289815
        -0.390213 -1.26979 0.372589
        0.300373 -2.92315 -0.0987775
        0.0107766 -1.52927 -0.843249
        -0.50763 -0.687188 -0.162924
        -0.00770795 -2.16929 -0.712939
        -0.190978 -0.423176 -0.439936
        1.61854 -1.62354 -0.0492246
        -0.237122 -1.50929 -0.183837
        1.05272 -1.16275 0.591296
        0.275248 -1.26961 0.284701
        -0.226355 -0.840941 -0.136996
        0.359592 -2.56157 0.55765
        -0.217481 0.0339947 0.536562
        1.11077 -1.54417 -1.08996
        0.331209 -1.20096 0.372245
        -0.399696 -1.71591 0.357684
        1.05455 -0.70092 1.05192
        0.269317 -1.99035 0.710189
        1.15451 -0.168477 -0.825541
        -0.361226 -1.51631 -0.607855
        -0.589272 -1.02898 0.0957723
        -0.702764 -1.90953 0.10229
        0.87365 -1.50599 0.283995
        -0.291159 -1.9793 -0.200627
        0.324316 -1.70471 -0.106074
        -0.211436 -1.57191 -0.852608
        -0.0720526 -1.70605 -1.152
        -0.326903 -1.90857 0.087624
        1.28956 -0.82366 0.398135
        0.55133 0.246773 0.174049
        -0.355036 -1.38007 -0.623919
        1.35057 -0.633193 -1.15351
        1.94064 -2.57936 -0.0628431
        -0.640014 -0.89172 -0.189039
        -0.762469 -1.04928 0.247586
        -1.54718 -0.11861 1.57939
        0.345061 -1.21058 0.0700345
        -1.05673 0.334658 -0.00377367
        0.601406 -1.33222 0.585693
        0.349447 -1.36621 0.61301
        -0.204572 0.00208405 0.193873
        0.137889 -2.36253 -0.430122
        -0.945667 -0.165095 -0.0728
        0.1075 -2.08419 0.0117856
        -0.203486 -2.37179 0.767883
        0.124106 -1.83835 0.41092
        0.864268 -1.02756 -0.769724
        -1.31495 -0.909272 0.53674
        -0.0528467 -1.2432 -0.585632
        -0.6538 -1.57966 -0.224702
        0.31657 -2.63517 -1.76145
        1.76268 -1.71736 1.17949
        2.16138 0.0441582 1.27447
        -0.481993 -0.67313 0.417123
        0.413446 -0.2231 -0.667385
        -0.587464 -0.146282 0.169362
        -0.586273 -1.07801 -0.0918043
        1.063 -0.816321 -0.1453
        1.85699 -1.8801 0.97921
        -0.561608 -0.531302 0.585386
        0.253088 -1.78726 0.0959349
        1.14775 -1.04034 -1.51711
        -0.0244178 -0.336344 -0.934677
        0.593339 -1.7029 -0.0422641
        0.0681648 -1.40134 -0.30244
        -0.693648 -1.58666 -1.46642
        1.25508 -2.56656 0.933054
        0.335931 -0.623131 -0.277576
        -0.0456321 -1.80266 -0.973052
        0.741844 0.0181931 -0.634768
        -0.0832022 -0.359042 1.30313
        0.368567 -0.922027 -0.546253
        0.397665 -1.19907 -1.40382
        0.781695 -0.805963 0.543999
        -0.0638918 -0.440114 0.844144
        0.9195 -1.46975 -0.509877
        0.255009 -1.60424 -0.040782
        0.206056 -0.199387 0.487956
        0.523941 -1.06362 0.141339
        -0.296519 -1.34528 -0.997944
        -0.870555 0.474259 -0.654333
        1.03205 -1.66396 -0.205027
        1.59438 -0.78579 0.352611
        0.0875507 -1.19488 0.0968666
        0.80157 -2.11714 0.249006
        -0.4153 -1.28683 0.234
        0.62884 -0.243333 -1.93963
        0.943273 -2.41054 -0.431695
        -0.880485 -1.11249 -1.02306
        0.89106 -0.98046 -0.150472
        -1.10655 -2.07482 0.168479
        -0.742167 -1.91555 0.00849789
        -0.652345 -2.27606 0.172899
        -1.6873 -0.350227 0.435837
        -1.48634 -0.772679 0.915979
        -0.948213 -0.0781335 1.30724
        0.182608 -1.30368 -0.945906
        -0.790555 -0.910343 -0.466929
        0.124144 -1.29027 0.391576
        -2.51022 -1.70695 -0.263346
        -0.750509 -0.0815839 -0.699035
        0.120425 -0.645499 0.468684
        0.538664 -1.2023 0.311774
        0.0142384 -1.63746 -0.939995
        -0.128115 -1.1755 0.889963
        -0.615287 -1.64566 1.52385
        -0.647358 0.425662 0.557324
        0.232817 -1.73356 -0.208207
        -0.586165 -1.55503 0.0200047
        -0.802899 -1.23236 -0.0674415
        -0.537337 -1.13797 1.6371
        0.260509 -1.63244 0.0316927
        -0.873253 -0.550071 0.0767331
        0.0905089 -2.17169 -0.28854
        -0.5572 -1.03698 -0.446475
        -0.363278 -0.787968 -0.124208
        -0.419504 -1.27668 -0.226248
        0.0993679 -1.05205 0.971936
        -1.62261 -2.84873 0.207201
        -0.155585 1.73164 -0.528216
        0.0180913 0.0283547 -0.235769
        0.636704 -1.12764 -0.173239
        1.00954 0.27591 -0.334689
        -0.736492 0.901207 -0.697422
        0.501037 1.37131 1.95715
        1.23092 -0.109963 1.15277
        -0.322065 -0.279387 -0.669535
        -0.223665 0.910936 0.159829
        -0.0686537 0.0659014 -0.205701
        0.00467627 1.73817 0.192746
        -0.34299 0.708213 0.386547
        -0.557347 -1.08119 0.745563
        -0.131875 1.34846 0.668664
        -0.988157 0.531512 0.465706
        0.796401 0.182781 -0.393682
        -0.759353 1.71944 2.0127
        1.15708 1.51819 0.254812
        -1.59173 -0.152636 -0.127954
        0.44323 0.913515 0.492651
        0.954329 0.686516 0.67616
        0.17195 1.78747 0.239821
        -1.63618 1.14199 0.458564
        0.386401 0.491942 -0.373307
        -0.644908 0.544515 -0.198179
        -0.106118 -0.0358448 -1.07601
        0.68157 -0.442717 0.635582
        0.0924191 0.529755 0.0138361
        -1.07907 1.60083 1.47661
        -0.446597 2.063 0.527466
        -0.989175 1.44813 -0.517683
        -0.0113533 0.730197 -0.194571
        0.876594 1.76544 -0.998328
        0.05829 0.818987 0.582035
        0.600862 0.31187 0.366304
        0.296452 0.771697 1.23039
        -0.546777 1.83462 -0.325042
        -1.2994 -0.24445 0.817611
        -0.234188 1.92089 0.445784
        -0.668182 1.93107 0.222721
        0.347745 1.17678 -0.0602496
        -0.949885 1.18658 -1.11301
        0.823609 3.08313 -0.212227
        0.485954 1.49141 -0.479394
        -0.580075 1.76906 -1.0396
        -0.257886 1.593 0.376158
        -0.293262 1.93439 0.146198
        0.653904 2.26054 0.152687
        -0.00598228 1.60804 0.994961
        -0.500651 1.69369 0.851117
        1.46821 1.80815 0.477781
        -0.031934 1.14465 -0.383637
        0.19043 1.06931 0.507855
        0.153394 0.167589 0.303133
        -0.46628 1.33258 0.506394
        -1.79254 1.66872 -0.474414
        -0.26438 2.07237 0.205167
        -0.544872 0.632815 -0.201778
        0.612751 1.59764 0.0763827
        0.232292 0.882617 0.91691
        -0.065591 1.25768 -0.126327
        0.908994 0.490242 -0.955415
        -0.28355 1.91508 0.815661
        -0.417254 0.896376 0.835754
        0.685723 3.06526 -0.275839
        0.693617 1.23822 1.48036
        -0.00731219 1.00235 1.63297
        -0.084663 1.58902 -1.12858
        0.327674 1.11742 0.0633276
        -0.855559 1.26869 0.00765939
        -1.19584 2.20706 -0.206771
        2.02244 0.218033 -0.0684626
        0.0386333 2.17091 -0.494649
        -0.388525 0.14949 0.802348
        -1.81213 1.57463 -0.520784
        0.632811 1.86144 0.772369
        -0.966367 0.789988 -0.894587
        0.665607 2.27517 -0.181089
        0.0582281 1.53748 0.0441222
        0.435794 1.60234 -0.11918
        0.0727555 1.01733 1.05972
        0.0201164 0.779475 -0.804213
        -0.358205 1.23677 0.486217
        0.0192792 0.977667 -0.955405
        1.5336 1.36553 1.25057
        -0.259347 1.08491 1.07121
        0.203725 0.79994 -0.11999
        -0.075789 1.64553 -1.05828
        -0.277982 2.86766 0.480026
        -0.0840064 0.847544 1.16074
        0.236582 1.49689 0.393999
        -0.931787 2.60414 0.0876714
        -0.155928 2.81658 -0.4373
        -0.341579 0.763606 -0.917923
        0.252176 1.90787 0.783503
        0.137386 0.971541 0.0312979
        0.461575 1.60255 0.753679
        0.848077 1.10529 0.916766
        -0.170156 1.85096 0.683884
        -0.537338 1.72145 -0.206245
        -0.816799 -0.0270786 1.44765
        -0.212763 2.28591 0.100552
        0.375198 2.01597 1.35135
        -0.700941 1.656 0.0322521
        -0.420002 0.785491 -0.599809
        0.063112 2.02935 1.13071
        -1.34283 1.40455 -0.595238
        -1.18785 0.766771 -0.244541
        0.868577 0.377162 0.41718
        -0.741701 1.15561 0.974611
        0.024321 2.20182 1.35057
        -0.154612 0.843205 0.723106
        -0.527223 1.76181 0.0336543
        0.616971 2.46835 -1.57707
        -1.38242 0.328975 0.257946
        -0.876281 2.28241 0.0693721
        -0.31287 1.61927 0.776723
        -0.646864 2.34661 0.643502
        -0.353236 1.74649 -1.09186
        0.238966 -0.422939 0.60438
        -0.748156 0.964829 -0.152997
        0.923291 1.04662 0.668741
        -0.445996 1.89214 0.420878
        0.317994 1.14806 -0.116477
        -0.393296 0.941225 0.765578
        -0.741506 0.521638 -0.747755
        -1.31176 3.09255 -0.106208
        -0.179513 1.34656 -1.38706
        -0.0704066 1.16074 -0.436649
        0.14002 2.55122 -0.114757
        1.45284 1.56744 -0.231421
        0.925556 2.4624 -0.561541
        -1.4522 1.53903 0.538537
        0.210347 1.85945 -0.78621
        -1.42647 0.944867 -0.708286
        0.25349 1.72337 -0.918391
        1.00556 1.98744 0.139344
        -1.16543 0.393364 0.38078
        2.08536 1.87415 0.911732
        0.858547 1.37595 -0.308251
        0.575853 0.691001 -0.432692
        -1.18541 0.826178 -0.753487
        0.0100083 0.689975 0.0542457
        0.359149 1.26779 -0.0288453
        -0.129304 1.79425 0.0444952
        -1.47908 1.14954 0.302384
        0.340969 2.17949 1.10787
        0.613738 3.48113 -1.6087
        1.07389 3.22107 -0.696302
        -0.294466 1.73409 -0.526996
        1.25219 1.09757 -1.19655
        -0.596216 1.72156 0.513839
        1.27057 0.284422 0.771139
        -0.231447 0.950442 0.264883
        1.10888 1.59477 0.127485
        0.201157 2.63197 0.699451
        -1.30477 1.09822 0.183794
        -0.400223 -0.126308 -0.142371
        0.0360207 -0.175003 0.514662
        0.291342 0.99541 -0.0506889
        0.259759 -0.346699 0.781922
        0.556807 1.09676 0.0803786
        0.112798 1.2655 0.919492
        0.100755 2.34582 0.498884
        -0.527259 1.62695 -1.21821
        0.762683 1.25793 0.311799
        -1.11928 2.07902 0.107777
        -0.0453816 1.12706 -0.307793
        0.681934 2.85802 -0.403415
        0.29269 0.69842 -0.202875
        -0.308768 1.02477 -0.362097
        -0.3336 -2.7382 -0.895163
        -0.317175 -1.7085 0.478346
        -0.801145 -1.72331 0.201154
        -0.768327 0.334779 0.507289
        0.470638 -1.81882 1.07618
        -0.488594 -1.32605 -0.322921
        0.860178 -1.70873 0.401351
        0.391317 -1.85607 1.53038
        -0.506386 -1.70342 -0.0118388
        -0.205763 -1.39249 -0.397475
        0.563997 -0.268197 -1.36667
        0.110507 -0.604559 -0.642692
        -0.103053 -1.35576 -0.168885
        0.404591 -1.66246 0.492551
        -0.00632496 -1.38317 1.00424
        0.381408 -1.97502 -0.232325
        0.00791979 -1.69751 -0.549876
        0.439416 -1.02452 0.360889
        -0.491585 -2.03073 0.0966763
        -1.35787 -0.635853 0.0926685
        -1.89238 -1.36048 0.960622
        -0.541963 -1.51 0.40284
        -0.552619 -0.489292 -0.450916
        -0.813832 -0.978607 0.639331
        0.858357 -1.93816 -1.29512
        -0.130006 -1.89557 0.169172
        0.234865 -2.25602 -0.106718
        -0.778081 -0.752788 0.110475
        0.714376 -1.9736 -2.06839
        1.47922 -0.897198 0.406976
        0.800189 -2.64175 0.343745
        0.64047 -2.59042 0.175823
        -0.294209 -0.967842 -0.838368
        0.359019 -1.65198 1.18523
        0.158018 -0.551966 0.541618
        0.215658 -0.878793 0.112747
        0.175245 -1.3818 -0.887253
        -0.00133102 -1.38833 -1.04651
        0.259222 -1.88464 -0.0644487
        -0.127665 -0.0176736 -1.20141
        0.647039 -1.15622 -0.934387
        -0.134078 -0.30458 -0.0500835
        -0.746184 -0.78345 0.0255643
        -0.126793 -2.87301 0.471412
        1.05726 -2.5756 0.821347
        0.230894 -1.50315 0.189584
        0.418223 -1.33489 -0.696428
        -1.09421 -0.580457 -0.68107
        1.10226 -0.629283 0.93619
        0.201649 -1.50406 -0.563203
        -0.887847 -0.356853 -0.879626
        -0.937834 -2.70476 0.143839
        -0.196635 -1.36252 -0.850045
        0.953981 -0.364863 0.539118
        0.955088 -0.755564 -0.172626
        1.32062 -1.8151 0.411821
        0.401132 -2.14092 -0.0468085
        -1.34698 -1.64374 -0.464294
        1.00357 -0.932411 0.616259
        -0.261268 -0.985145 0.265081
        -0.533357 -1.32703 0.831998
        0.825963 -2.78806 -0.250357
        0.423226 -1.53841 -0.258564
        -0.066422 -1.26272 0.408668
        1.35085 -0.967963 0.82114
        -0.0465314 -2.6326 -1.34055
        0.41078 -0.473851 -0.721571
        1.34196 -2.08533 0.0894975
        0.494299 -2.1325 -0.393332
        -0.673144 -0.420056 0.269097
        -0.45181 -1.10846 0.156243
        0.41194 -2.559 -0.785018
        -0.250714 -1.39181 -0.0645932
        -0.273728 -1.01039 0.814593
        0.875846 -1.3446 -0.46729
        0.540895 -0.543729 -0.171533
        0.522758 -0.588591 -0.714645
        -0.0160147 -1.30611 -0.0611439
        1.16558 -0.758468 -2.08239
        -1.34784 -0.837001 -0.812186
        -1.22331 -1.3399 -0.763162
        0.549756 -0.73902 -0.849136
        0.930705 -1.70518 -0.306008
        0.660878 -1.38222 0.0762767
        0.773752 -0.984118 0.0735195
        0.243866 -2.19321 1.79432
        -0.656131 -1.98111 1.00236
        -1.18216 -0.405316 -0.446408
        0.556293 -2.58081 0.218679
        -1.27075 -1.98227 -1.28365
        0.199972 -1.64365 -0.569233
        -0.216952 -1.93646 -0.671768
        0.695359 -1.30589 -0.460802
        1.39821 -1.0711 -0.0277042
        0.245022 -1.20764 -0.11857
        0.181097 -1.28824 -0.656801
        -0.222327 -2.13463 0.192084
        -1.82329 -2.18269 1.306
        0.279073 -1.34011 -0.961722