<?xml version="1.0" encoding="UTF-8" standalone="no" ?>
<VTKFile byte_order="LittleEndian" type="UnstructuredGrid" version="0.1">
  <UnstructuredGrid>
    <Piece NumberOfCells="0" NumberOfPoints="1764">
      <PointData>
        <DataArray Name="velocities" NumberOfComponents="3" format="ascii" type="Float32">
        -0.892965 -0.573003 -0.379158
        0.762745 -1.80666 -0.875924
        0.28011 -0.488197 -0.977532
        -0.140419 -1.89667 0.00596131
        -0.386582 -3.09267 0.16175
        -0.386895 -1.15688 -0.729899
        -0.316999 -0.602473 0.635916
        0.42823 -0.940758 1.95895
        0.132273 -1.274 0.582035
        -0.31509 -0.807136 0.352935
        -0.224362 -1.6339 1.12983
        -0.631464 -2.82801 -1.21453
        0.108274 -2.09857 0.244475
        0.781337 -1.45911 -0.46398
        0.5873 -1.76086 0.649446
        0.725578 -1.72135 0.821763
        -1.05406 -0.895971 -0.256826
        0.49281 -0.700291 0.909113
        0.0445799 -1.39409 0.0379764
        0.523966 -0.941127 -0.304297
        -0.733741 -1.17192 -0.547097
        -0.987641 -0.728885 0.965883
        0.549744 -0.344789 0.0919094
        -0.779922 -1.62283 -0.213255
        -0.373092 -2.12366 0.0943037
        0.0902396 -1.6612 -0.48914
        -0.0263735 -1.79831 -1.65064
        -0.978274 -1.20574 0.225924
        0.271287 -0.275781 -0.139602
        -0.385924 -1.28455 0.666186
        0.0968524 -2.38428 0.291816
        0.680166 -1.44302 -0.910107
        -0.495738 -0.64534 1.04428
        0.393037 -1.5444 -0.969179
        -0.526944 -2.07857 0.149945
        -0.00350458 -2.04517 -1.14719
        0.796245 -2.02271 -0.343681
        -0.294046 -1.72799 -0.458339
        -1.58496 -0.149908 0.308271
        -0.551722 -1.1711 -0.113827
        1.34897 -1.73498 1.15287
        -0.224396 -1.56929 -0.0142542
        -0.471265 -2.31801 0.924619
        -0.160709 -0.855858 -0.896644
        0.249805 -1.15291 0.228347
        -0.759856 -1.37359 0.538905
        1.07854 -1.82153 -0.23783
        0.244536 -1.85281 0.262578
        -0.164671 -2.36767 1.1941
        0.467406 -2.01686 0.225576
        0.672125 -2.27073 -0.176082
        0.193411 -2.13086 -0.461288
        0.586274 -1.79501 -0.49042
        0.240511 -1.58872 0.180927
        -0.802076 -0.977426 0.718331
        -0.05282 -0.00954518 -2.12194
        -0.0221599 -1.84134 -0.791023
        0.0786523 -0.907462 0.898902
        -0.386992 -1.21055 0.518015
        1.32077 -2.16114 -0.64908
        -0.0953971 -0.43664 -0.58768
        1.22196 -1.78919 0.612425
        0.0108312 0.597631 -0.00664289
        -0.0726882 -0.519007 1.23584
        0.430895 -1.83185 -0.297939
        0.485374 -0.351284 0.673098
        -0.564634 -0.565165 0.0864948
        0.0967515 -0.914809 0.5064
        -0.71978 -1.7224 -0.109175
        -1.06695 -1.653 1.79745
        0.881622 -0.024421 -0.722454
        -1.10786 -1.09341 -0.503472
        -0.517727 -2.28242 -1.5455
        -0.617127 -0.8354 0.538932
        -0.61266 -1.31241 0.625909
        1.11778 -1.36821 0.102206
        -0.937493 -1.21993 -0.404865
        -0.741268 -0.63807 -0.682957
        -0.285118 -1.63773 -1.09689
        0.547982 -0.532343 -0.56264
        -0.4689 -0.807687 0.22233
        -0.48516 -1.73186 -0.226426
        1.04733 -1.20158 0.442069
        -1.01361 -1.69213 0.557851
        1.02137 -2.0395 0.912099
        -1.24396 -0.588453 0.261317
        0.436912 -1.64828 0.0653844
        -0.370627 -1.09547 0.7781
        -0.727033 -2.16334 -0.533273
        0.510641 -1.28339 -0.384212
        -0.169436 -2.19554 1.49256
        -0.408705 -0.736502 0.412487
        0.215107 -1.12225 0.0644966
        0.769239 -1.20478 -0.000800041
        -0.996509 -2.09017 -0.238192
        1.04532 -1.13648 0.287894
        0.399214 -1.00018 0.235187
        0.571747 -1.70956 -0.551537
        -0.41751 -1.65183 0.776814
        -0.450724 -1.14657 1.01097
        0.180064 -1.58934 0.80692
        -0.754014 -2.90037 -0.342327
        -0.185882 -3.29466 0.301331
        0.825359 -1.49108 -2.01511
        0.878406 -2.32182 -1.5379
        1.1037 -0.866961 -1.09753
        0.156372 -3.03081 0.0164036
        -0.766291 -1.96775 -0.326521
        -0.06409 -2.96437 -0.613654
        -1.43023 -2.03687 0.0542804
        1.46406 -1.48463 0.993366
        -0.489541 -0.578243 -0.0739216
        -0.00542658 -1.05793 0.675239
        -1.12031 -0.20422 0.0301102
        1.35425 -0.83468 -0.551275
        -1.53234 -1.05343 0.0502449
        -0.0154037 -3.09809 0.46358
        0.416445 -1.28168 0.201816
        -0.62138 -1.29484 -0.709798
        -0.895273 -0.908397 -0.649772
        0.372904 -0.708236 0.288046
        -1.7681 -0.532621 -1.73678
        0.834861 -1.93367 1.09835
        0.720203 -0.941365 -0.183356
        0.928697 -1.35785 0.536882
        1.09805 -2.72112 -0.576594
        0.204584 -2.3487 0.705981
        0.898966 -1.0959 -1.24349
        1.16476 -1.07567 -0.813304
        -0.364658 -1.85431 -0.597627
        1.4764 -2.07888 0.061465
        0.362951 -1.19522 0.0906967
        0.4744 -0.87531 0.548061
        -0.408818 -1.52173 -1.74508
        0.264291 -0.260806 -0.127926
        -1.22656 -1.26854 1.04451
        -0.128644 -2.44535 -0.296191
        0.754398 -1.04719 0.070139
        0.793077 -3.04875 0.313973
        0.404631 -0.42221 0.309115
        -0.628062 -0.828939 -0.653004
        0.494291 -2.51345 -0.35014
        0.113623 -0.729831 0.216855
        -0.793209 -1.78583 -0.23477
        0.0992018 -0.921793 0.0814639
        -0.166415 -1.07488 -0.0536613
        -0.25491 0.135891 0.635561
        -1.09467 0.127693 1.87523
        -0.711252 -1.69659 1.47916
        -0.433296 -1.29862 -0.845863
        -0.999196 -0.869323 -0.536401
        -1.17958 -2.0336 0.259245
        0.359443 -1.96196 -0.156733
        1.33318 -1.209 -0.0378361
        2.14706 -1.92972 -0.351792
        -0.139288 -2.36523 0.405632
        0.504825 -2.35858 -0.056044
        0.22883 -2.90186 0.466001
        1.07946 -0.903714 0.227464
        -0.629725 -2.06845 1.22854
        0.644388 -2.09279 -0.517232
        0.307477 -1.53179 -1.35658
        2.25572 -2.63574 0.653924
        0.723052 -0.662564 -0.682519
        0.340353 -0.986127 0.306814
        -0.611259 -0.880029 -0.951308
        0.544506 -0.0653419 0.547833
        -1.4506 -2.88939 1.54933
        0.858669 -1.30089 -1.19541
        0.820448 -0.99471 0.418958
        0.0940124 -0.403316 0.372448
        -1.05605 -0.797034 0.0829699
        -0.290006 -0.900799 0.178458
        -0.844675 0.45656 -0.0607388
        -0.580434 0.134377 0.0171918
        -0.438605 -2.05386 -0.347463
        -0.88428 -0.728163 1.18132
        -0.440191 -1.99059 -1.13299
        0.682071 -0.842838 -1.08548
        -0.564462 -1.67029 0.452808
        -1.76633 -0.676833 0.25312
        -0.142077 -1.13035 1.40141
        -0.207318 1.36067 -0.0546077
        0.595273 -1.25997 -1.38918
        -0.00540934 -0.920495 0.519466
        -0.905724 -0.106803 0.999894
        1.15598 -1.6172 -0.890643
        0.10208 -0.66352 0.371357
        0.741232 0.593956 1.63445
        1.77405 -1.99802 0.295218
        -0.854653 1.79074 0.781245
        -0.199566 -0.803101 -0.375096
        0.956631 -0.396225 -0.97084
        0.762456 -0.605566 1.26999
        0.782616 0.296397 -1.12288
        -0.333 -0.0613174 -0.101705
        0.375595 -0.663172 0.294268
        -0.814846 0.12297 -0.0811709
        0.449453 -0.498773 1.04745
        -0.361042 1.09301 -0.183668
        0.296993 -0.16483 -0.681186
        0.951468 0.506995 0.987547
        -0.241694 1.71932 0.658279
        0.648161 0.754435 0.899051
        -0.10319 0.00500282 0.144715
        0.811143 1.34444 0.574117
        -0.392273 0.0506732 -0.864776
        0.335367 -0.202317 -1.28934
        -0.294423 0.912586 -0.357059
        0.967457 0.773543 0.177461
        0.723552 1.20752 -0.237364
        -0.411664 0.167292 0.0385147
        0.433924 1.86717 1.06819
        0.764135 0.217205 -0.148163
        -0.056737 -0.381584 1.25678
        0.0597358 1.68448 -0.289767
        1.88642 0.933858 -0.882308
        -0.712134 1.14167 1.60691
        0.529087 2.06074 0.436318
        -0.824614 -0.0806099 1.0173
        -0.946412 0.847501 1.20311
        0.92902 1.44531 0.376442
        0.613308 0.419927 1.10068
        -0.677239 1.18277 -1.49078
        -0.666279 1.54323 0.620869
        0.40531 -0.0225438 1.62936
        0.606511 0.455754 -0.402875
        1.15162 1.51876 0.846572
        -0.223024 0.787048 -0.625669
        0.372023 0.872466 -1.88838
        -0.525127 1.73906 0.352601
        0.0242166 2.831 0.91474
        -1.12428 1.11125 -0.733413
        1.91753 0.646797 -0.333316
        -0.197849 1.06376 -0.0190817
        -1.26297 1.51797 0.241241
        0.0158093 2.95881 -1.00451
        -1.65867 0.784878 1.04204
        0.408385 0.48999 -0.350655
        -0.23394 0.483155 -0.302442
        -0.10936 0.773313 0.344859
        -0.177268 1.68132 -1.21333
        -0.217844 0.356499 0.967196
        -1.09738 0.728446 0.515991
        -1.47915 1.166 -0.9263
        -0.753917 1.31229 0.54226
        -1.00738 0.187106 -0.337661
        -0.547437 2.43232 -0.742125
        0.178696 -0.0185086 -0.18215
        1.77959 1.30134 -0.234484
        -0.0109669 0.840776 0.0881645
        0.736436 0.741125 -0.675985
        0.518963 0.583984 1.63793
        -0.201021 0.0183718 -0.0176669
        0.774151 1.74517 -1.76411
        0.514144 1.68724 -0.575161
        0.963548 0.828653 2.04267
        -0.241338 1.32165 -1.9917
        -1.2489 1.79738 -0.866995
        0.817814 1.65932 -1.34768
        0.108549 1.26222 0.0154782
        0.294621 1.4216 -0.777628
        -1.31957 1.60017 0.629482
        -0.445505 1.21909 -0.412814
        -0.333725 2.19692 0.161408
        0.72466 3.04337 0.353458
        0.102623 1.05268 0.183274
        -1.53254 2.14254 0.406752
        0.473464 -0.961659 0.27379
        0.00738 0.926229 0.0361736
        -0.25555 1.27377 0.830363
        -0.192995 0.483946 -0.129698
        0.131578 1.00233 0.440393
        0.406195 1.41816 1.17728
        0.38844 0.822231 0.621165
        -1.1948 1.52063 0.523246
        0.846398 0.884038 0.276728
        -0.744616 1.79098 -0.275869
        -0.365163 1.55235 0.0104786
        0.542281 1.71859 -0.343454
        -1.09807 0.334095 0.30097
        0.725279 0.719292 1.48916
        0.361896 1.407 0.446202
        0.154682 1.39335 -0.854444
        -0.760089 1.06212 -0.219192
        -0.385258 1.13751 -0.217874
        0.687587 0.743061 -1.25199
        0.0595057 1.49432 0.113696
        -0.273657 0.487313 -0.354682
        -0.242645 1.54334 -0.507199
        0.079479 0.175976 -0.200104
        -0.581621 0.905232 -0.170337
        -0.647831 2.59265 0.819033
        0.942676 0.751142 0.359827
        -0.630466 1.15799 -0.0726437
        1.00352 1.05573 0.383555
        0.251579 1.53222 1.52996
        -1.15079 0.518814 -0.0930975
        -0.00301256 1.21518 -0.228076
        0.437231 1.52359 0.541111
        0.11238 1.23619 -0.369466
        0.356365 1.45667 0.898195
        -0.651704 1.34078 0.484219
        -0.0745747 1.88618 0.251061
        -0.424766 2.26166 0.0938132
        -0.45539 0.726211 -0.561533
        -0.0269193 0.454667 -0.259603
        0.965868 1.7091 1.11845
        -0.0347871 0.648517 -0.453891
        -0.852657 1.35399 -0.144503
        -0.268717 2.49209 0.582499
        -0.210328 1.08681 -0.0601048
        1.13171 1.89774 0.313813
        0.145167 1.87552 0.558556
        0.750166 1.7305 0.992963
        0.0835192 2.11103 -1.03696
        0.456882 1.07699 1.42602
        -0.45197 1.48672 -0.0283182
        0.316084 1.1715 -0.479226
        -0.764193 1.76512 -0.145669
        0.00395281 0.566686 -1.18186
        -0.175761 2.00357 -0.852306
        -1.10792 0.0177788 -0.0517897
        -0.187753 1.69443 -0.238743
        0.879428 1.09583 -1.81055
        -0.0860071 1.8198 0.267344
        0.205168 0.860785 0.0813566
        -1.26973 1.52651 -0.113982
        -0.201319 1.39926 0.373364
        -0.796912 2.55397 -0.614554
        0.328442 0.0801036 0.41934
        0.483458 1.87927 -0.296779
        0.470145 0.142473 -0.0136842
        -0.661725 1.73216 -0.292321
        0.046791 1.62964 -0.63592
        0.155808 1.31154 0.256948
        -1.38781 1.76705 1.02203
        -0.0956681 1.72378 -1.44975
        0.757174 1.72751 1.70397
        0.71029 3.00425 0.286121
        0.285238 1.81534 0.0297745
        0.0731333 2.29312 1.08931
        -0.663356 1.00283 0.943541
        -0.618823 1.14468 0.461922
        0.101094 1.84532 -0.398951
        -1.06936 1.19363 0.0878107
        0.583876 2.20375 0.374469
        -1.41484 1.95398 -1.44997
        -1.08543 1.42671 -0.27744
        -0.140624 1.5031 -0.192652
        -0.778334 1.20507 1.01524
        0.719556 1.08417 0.366509
        0.341737 1.48152 1.05911
        0.177925 2.16082 0.34691
        0.327213 1.84144 0.300503
        -0.335932 1.46314 -0.453324
        -0.457104 1.86442 -0.199215
        1.0823 1.73587 -1.06235
        -0.142988 1.48941 0.327019
        0.446408 1.13467 0.511816
        -0.159177 1.46551 -0.0202449
        -0.152214 0.369804 2.19776
        0.196351 1.94056 0.713741
        0.441979 1.9949 -1.58834
        -0.989727 1.24022 -0.860489
        1.18448 2.80077 0.898283
        1.55803 0.756225 -0.341066
        -0.479395 1.97728 -0.951818
        -0.233115 1.79378 0.918118
        1.08569 0.471806 0.268695
        1.08666 2.03117 -0.277071
        -1.47615 1.28434 -0.667854
        0.300219 1.57635 0.126647
        -0.387673 0.111471 -0.265132
        0.594967 1.07365 0.592087
        -1.13411 0.81032 0.467047
        -0.137411 1.14572 0.272811
        -0.0331484 1.8884 -0.155358
        -0.841933 2.00058 -0.246294
        -0.519762 2.92866 0.737801
        0.483684 1.34884 0.804628
        0.114803 0.789036 -0.201327
        0.769861 2.11896 -0.918221
        -0.21843 0.870288 1.07948
        0.322857 1.02838 -0.386728
        0.921774 1.38918 0.418002
        0.872206 1.0155 -0.71376
        0.905976 1.40656 -0.539743
        1.18575 -0.074176 0.126653
        0.0648821 -2.37146 0.248457
        -0.743626 -1.94397 0.219588
        0.544582 -0.501801 0.0483533
        0.42752 -1.01004 -0.481306
        -0.0371572 -1.79669 -0.934849
        -1.30074 -1.92405 -1.29892
        0.0397265 -1.83091 0.727834
        -0.28961 -0.557043 1.42196
        0.212626 -0.699688 -0.482245
        0.622547 -0.849072 -1.01158
        -0.373767 -0.925526 0.0576551
        -0.0138402 -1.17269 0.229003
        -0.346351 -1.69803 0.289448
        -0.0337631 -0.43208 0.833546
        -0.74782 -1.27195 0.485099
        0.495427 -0.674402 -0.311976
        -0.643276 -1.85171 0.347908
        0.649273 -1.45653 0.657895
        0.260282 -0.36286 -0.66763
        0.83719 -1.3328 -0.723561
        0.048569 -1.94271 -0.736503
        -0.668549 -0.749838 -1.19997
        0.386427 -1.2647 0.173064
        0.308862 -1.42087 0.214547
        0.663402 -0.857909 -0.0818833
        0.517921 -1.86538 1.50988
        -0.108419 -0.854138 -0.950196
        0.26655 -1.62293 0.479732
        -0.28476 -1.84062 -0.75904
        -0.529232 -1.63145 -0.615768
        1.14153 -0.435295 0.463452
        -0.640673 -1.70408 -0.456613
        0.440677 -2.23028 0.274205
        0.506998 -1.68212 0.501665
        0.467915 0.594321 -0.426251
        -0.984941 -2.11743 0.627301
        0.584288 -1.14402 -0.368418
        -0.0553769 -0.873887 0.0717
        -0.199389 -2.77527 -0.150362
        -0.670201 -0.897511 -1.08277
        -0.0208913 -0.427139 -0.356534
        -0.891839 -2.32585 0.362297
        2.28031 -1.85568 0.140315
        0.600726 -1.50983 0.996972
        -0.00936611 -2.02933 -0.275371
        -0.351301 -1.19218 0.626685
        -0.0470883 -1.39809 0.697359
        -0.436898 0.38571 0.261727
        1.0262 -1.18008 -0.70289
        -0.202404 -1.30622 -0.667526
        -0.343241 -1.34322 -0.297504
        -0.131182 -1.75806 0.0274702
        0.762605 -0.566592 0.065368
        -1.19694 -1.7707 -0.24188
        0.525156 -1.69769 -1.04183
        -0.533831 -1.94517 -0.303003
        0.91117 -1.28851 1.0608
        -0.256341 -0.0752998 -0.224078
        0.439072 -1.56398 0.620789
        0.212964 -0.706423 1.2113
        -1.27151 -1.83188 -0.00778755
        0.325782 -1.30677 0.805821
        0.212895 -1.2588 0.365619
        -0.984975 -2.25139 -0.639456
        -0.455615 -1.13093 1.17787
        -0.42734 -1.41532 -0.035557
        -0.516428 -0.562486 -0.495118
        -0.41919 -0.552139 0.509275
        -1.28947 -1.95539 0.52011
        -0.504813 -2.46112 0.97484
        -0.700688 -0.437666 0.719045
        0.0737512 -0.782972 -0.420885
        1.00873 -1.63811 0.947473
        -0.12477 -0.918492 0.21372
        1.94767 -0.647619 -0.849041
        -0.0559019 -0.844649 0.104304
        -0.0185069 -1.80213 0.565394
        -0.278701 -2.14671 -0.786116
        0.487415 -1.15104 0.358006
        -0.553164 -1.25093 -0.0318763
        0.261606 -1.44358 -0.500693
        0.938073 -2.51247 0.0535825
        0.954975 -1.85455 0.0573139
        -0.728863 -2.00201 -1.21804
        0.367916 -2.96114 -1.12504
        -0.069634 -0.609501 0.223559
        0.148829 -0.574088 -0.184606
        0.0789745 -0.491528 0.215163
        -0.00999542 -1.67487 0.377474
        -0.0458161 -1.36413 -0.499915
        0.304956 -0.882813 0.372035
        0.34451 -2.39873 -0.651644
        -0.208224 -1.44158 -0.888645
        0.233342 -0.823258 1.54424
        1.03419 -0.827258 -0.319142
        0.292502 -0.852254 0.451211
        0.188618 -1.13267 0.492255
        -0.503711 -1.20063 0.277852
        -1.43617 -2.01486 0.953926
        -1.06937 -1.00569 1.19822
        0.754908 -0.359988 -0.278501
        -0.887227 -1.92171 0.149731
        0.200176 -0.607117 0.973936
        0.514998 -0.423963 0.533695
        0.365001 -0.335757 -0.837644
        -0.436552 -1.78965 0.731365
        -0.547689 -1.34187 0.3695
        0.955528 -1.40934 0.774471
        1.28537 -2.18448 0.624646
        -0.26977 -0.472645 -1.98845
        0.676358 -2.43642 0.276551
        0.965233 -1.2362 0.838817
        -0.373135 -0.105393 -0.141647
        -1.4146 -1.1273 -0.0188563
        0.036608 -0.53244 -1.68712
        -0.634173 -1.29783 -0.209351
        0.151618 -0.865681 0.187862
        -0.0253853 -0.7764 0.0511379
        -0.175129 -0.904424 -1.81278
        -1.16578 -1.1182 -0.84032
        -0.110203 -2.30249 -1.41091
        1.37314 -0.947105 -0.182957
        -0.120742 -1.87574 -0.6471
        0.2353 -1.62855 -1.39989
        -0.657855 -1.09141 -1.1431
        -0.00799187 0.471226 -0.661889
        0.945005 -0.69207 0.316635
        0.253912 -0.564915 -1.22922
        -0.771741 -0.033221 0.10412
        0.609495 -1.58475 0.292166
        0.378055 -1.29392 -0.123404
        0.135504 -1.0541 0.336816
        -0.0826939 -2.23857 0.472637
        -0.054042 -0.852485 -0.367583
        -0.209095 -1.82478 0.188651
        0.703062 -2.54972 -0.629119
        0.0731445 -1.19641 -0.367592
        0.161287 -1.87601 0.484033
        0.630846 -2.27822 0.869933
        0.426248 -0.492271 -0.673993
        -0.126751 -0.82652 0.259711
        0.959205 0.396571 0.536143
        -0.363908 -2.11813 -0.324824
        0.351353 -2.2362 -0.569296
        -0.487906 -0.47874 -1.01448
        1.07336 0.169264 2.30743
        -0.508341 -1.19233 1.49761
        1.2086 -0.281432 0.0243599
        -0.0179276 -0.656185 0.803609
        -0.000758788 -0.917524 -0.702675
        -0.986737 -0.85334 0.569359
        1.29093 -2.56451 0.483095
        -0.547757 -0.61728 0.457397
        0.397623 -0.632182 -1.14901
        -0.637665 -0.666175 -1.4852
        0.31722 -1.13197 -1.46684
        0.385121 -0.346461 0.294019
        -1.16897 0.0791387 -1.12016
        -0.247426 0.311012 -0.172103
        -1.14766 1.05356 0.283453
        -0.95404 -0.890845 0.0516719
        0.129171 -0.606945 -0.374905
        -0.528059 -1.1673 1.53622
        -0.620613 -0.109423 0.747039
        -0.738626 -1.89374 0.438497
        0.251055 -0.398648 -1.67464
        0.468561 -0.518827 -0.00760288
        -0.0978792 0.493759 1.11874
        0.601394 1.00281 0.0331954
        -0.720805 -0.903728 0.939298
        -1.762 -1.09602 0.57167
        0.507545 -1.5619 0.147837
        -0.473624 -0.312781 0.752316
        -0.680126 -0.506768 0.342536
        1.5321 0.686373 0.619451
        1.20344 -0.998535 -1.32727
        -0.868771 -1.83137 -0.881661
        -0.164905 -1.2988 -0.353573
        0.286573 -0.243976 0.618358
        0.631114 -0.457931 -0.287823
        0.647782 -1.32153 0.0224425
        -0.981681 0.696519 0.267759
        0.946754 -2.49974 -0.305578
        -0.34346 -0.792344 0.625148
        -0.0513644 -2.7687 1.70725
        -0.602926 -0.141771 1.20441
        0.034348 -1.60117 0.265071
        -0.416992 -0.195483 1.07722
        1.47996 0.299271 0.774107
        -1.42193 0.451627 -1.24227
        0.133559 0.468947 0.0287459
        0.436348 0.783045 0.567618
        0.37316 0.234467 -0.704928
        0.387698 0.940127 -1.06164
        -0.0203163 0.634719 -0.792576
        -1.04499 0.246399 0.457452
        0.300168 0.380593 0.248637
        0.48586 0.873566 -0.648178
        -0.245912 1.06179 -0.17303
        0.551477 -0.400159 0.584917
        -0.50031 0.0539282 0.707157
        0.956325 -0.395668 0.45671
        -0.207272 1.19163 0.621543
        -0.295251 1.13671 -1.10538
        0.0870899 2.21981 -0.709181
        0.238114 0.459101 -0.454167
        0.843479 1.41486 0.483266
        -0.0985446 1.329 -0.818851
        -0.196071 2.21244 -0.625453
        0.248451 1.6701 -0.528501
        -0.980531 1.66972 0.579903
        1.0268 1.71883 -0.910957
        -0.0296034 1.79068 -1.30444
        -0.707003 1.60006 0.240768
        1.21282 1.83989 -0.685078
        0.273874 1.71979 0.45403
        0.437489 1.37149 -0.441713
        -0.546498 1.16425 -0.0598309
        0.68532 -0.109149 -0.806165
        0.286904 1.47355 0.651212
        0.0991323 1.03115 0.848214
        -0.480055 2.51515 -0.57924
        -0.63094 1.71457 0.641416
        1.13375 1.68487 0.37592
        0.79757 0.190707 -1.22121
        -0.667901 1.94609 1.19737
        -0.163485 1.73614 -0.295046
        -0.697228 1.5336 0.31419
        0.018137 2.4868 -0.159463
        1.2587 2.0049 -0.0882376
        0.855661 2.56877 0.652741
        0.707066 1.72207 0.400681
        -0.448049 0.72149 -0.0613064
        0.180232 0.830163 -0.987783
        0.699119 1.2646 -0.1423
        0.359071 2.00879 0.25513
        -0.202472 2.56018 0.443769
        0.454865 0.933095 -0.104814
        0.117867 1.69216 -1.14586
        -0.329187 1.49009 -0.758799
        -0.499887 1.54865 -0.226591
        0.467488 0.292742 0.612795
        -0.310115 0.949082 0.284771
        1.28607 1.12177 -0.323048
        1.22222 0.335414 -1.11752
        0.711567 1.20566 -0.593194
        0.643399 1.41768 1.01705
        -0.751541 0.55873 0.693739
        -0.637518 2.15537 1.10811
        0.576978 0.554848 -0.301601
        -1.49259 1.44212 -0.729877
        1.0984 0.613248 -0.127289
        -0.505972 0.902237 -0.21838
        -0.365399 2.09096 -0.113467
        -1.17302 0.381746 -0.962155
        0.55004 1.06416 -0.47334
        -1.19324 1.34422 -0.233547
        1.1386 2.56663 -0.549707
        -0.241758 1.89202 0.145246
        0.0156626 1.9865 -0.447622
        -0.967935 1.23089 -2.00863
        -1.17235 1.65463 -0.910347
        0.0475112 2.07277 -0.821973
        -1.45061 1.40895 1.06729
        0.0299547 1.277 0.88142
        -0.0722806 1.33184 1.03658
        -0.218403 2.12204 -0.823868
        0.572204 1.24639 -0.716905
        0.0237597 1.33429 -0.562183
        -0.625511 0.815834 -0.0110518
        -0.286212 1.69798 -0.284086
        -0.90407 1.62674 0.118826
        -0.0889088 1.27512 -0.0609075
        0.316562 1.88246 -0.0429528
        -1.55796 2.04927 0.966355
        -0.822081 1.88123 0.23546
        0.998996 1.15079 -0.592041
        -1.04639 1.9835 -0.799047
        -0.487564 1.25968 -0.977977
        0.746137 0.548906 0.282135
        0.103216 0.696136 0.469123
        -0.175036 1.45544 -0.432713
        -0.161889 1.76886 -1.19806
        0.690155 2.26075 -0.793955
        -1.01705 0.591198 -0.455517
        -1.15326 1.67619 0.445145
        -0.89358 2.26123 0.0708666
        -0.183365 2.458 -0.900705
        -1.22126 0.956435 -0.505568
        0.116471 0.882895 0.660052
        0.258571 0.0206648 0.316771
        -1.01509 0.652706 0.79221
        -0.466295 0.558696 -0.367812
        0.482711 1.42637 0.898534
        0.976312 1.01181 -0.212391
        0.305137 2.30498 -0.237543
        -0.640676 1.54319 -0.855858
        -0.419739 2.33517 0.59126
        0.189887 2.17923 1.00698
        0.113326 -0.0241293 -0.267114
        -0.045735 0.960986 -0.382961
        -0.409858 1.47055 -0.453396
        -0.953661 0.463363 0.931956
        0.159504 2.17326 -1.57069
        -0.547273 1.86292 0.365689
        -1.25099 0.429211 -1.12882
        0.398451 0.351549 0.330978
        -0.560036 2.05373 -0.514075
        -1.00392 1.29239 0.687794
        0.349112 1.06148 0.564682
        -0.0834551 2.14136 0.0186333
        -0.352094 0.429459 -1.28833
        -0.354704 1.63017 -0.289873
        0.59451 1.2703 -0.868857
        0.0593485 0.535058 -1.41992
        -1.00911 1.58938 -0.945627
        -0.254098 1.94429 1.95163
        -0.652821 1.90169 -1.28999
        0.481525 0.809703 0.800196
        -0.578215 3.04215 0.989095
        -0.299607 1.45889 1.07338
        -0.209059 0.991404 0.597413
        0.275292 3.58385 -0.838374
        -0.749835 0.502516 -0.358927
        -0.280174 2.64848 -0.548048
        0.456499 1.30102 0.139182
        -0.317198 0.843419 -0.694241
        -0.733748 1.36198 -0.631988
        -0.12949 1.46093 -0.246865
        -1.54769 2.41847 0.486758
        0.436763 -0.106341 -0.402222
        -0.665864 0.36042 -0.327413
        -0.879599 0.720499 -0.486696
        -0.527365 0.433742 0.289027
        1.63952 1.97558 0.192113
        -0.69642 2.16509 -0.177096
        0.542363 1.9388 0.102888
        -1.30999 0.619602 0.321179
        -0.622566 1.41416 0.0432313
        -2.4849 1.89698 -0.324266
        -1.203 1.09099 -1.1748
        0.136659 1.40194 0.549254
        -1.62563 1.70186 0.349389
        -0.0877295 1.55296 -0.149221
        0.858708 2.08036 -0.532327
        0.275051 0.66867 0.516908
        0.0880683 -0.0630255 -0.944075
        -1.11116 -1.66015 -0.535182
        -0.410305 -1.67322 -0.646341
        -0.326929 -0.364616 -0.000134863
        0.261915 -0.279246 0.9418
        0.902877 -1.98732 0.210414
        -1.34332 -0.695799 0.345672
        0.0874175 -0.979506 0.227823
        -0.148188 -0.508773 1.11202
        -0.222357 -2.10324 0.045916
        -0.717361 -0.687826 -0.906951
        -0.518013 -1.54864 0.525358
        -0.649964 -1.35772 -0.862462
        -0.672405 -0.896852 -0.833808
        -1.10433 -0.36384 -0.335384
        0.992513 -1.3344 0.613441
        -1.06996 -1.84136 -1.02972
        0.0577515 -1.68521 -0.394082
        -0.608655 -1.27443 -0.850525
        -0.728206 -1.49326 -1.04038
        0.113538 -2.03175 0.139546
        1.17235 -1.65463 0.910347
        0.0592328 -0.71479 -0.234999
        0.548107 -0.906399 0.754865
        0.824183 -1.39055 -0.464666
        0.599882 -1.91493 -0.726174
        -0.437583 -1.57158 1.4663
        0.510679 -2.64729 0.673034
        -0.0266888 -2.1177 0.0558466
        0.411271 -1.56871 -0.922257
        0.371064 -0.884649 1.13715
        1.14658 -3.21757 0.777762
        -0.861808 -1.41559 0.597545
        -0.386999 -0.970332 -0.24866
        2.04363 -1.09556 -0.424116
        0.373282 -1.50205 -0.163436
        0.453252 -1.9139 -0.476579
        -0.257169 -2.00363 -0.150339
        -0.634697 -0.607948 -0.56549
        -0.717138 -1.54337 -0.344191
        0.0777194 -1.49854 0.251478
        -0.349112 -1.06148 -0.564682
        0.172625 -1.45102 -0.580447
        -0.364817 -1.6162 -0.803002
        -0.449061 -1.60756 -0.11063
        -0.151647 -1.21197 0.0508644
        -0.850905 -1.34727 -0.0374939
        0.0926649 -1.87706 -1.70804
        1.12761 -2.07352 0.264798
        0.171727 -2.07005 -0.783451
        -0.830064 -0.742288 -0.349039
        0.0205767 -0.40084 0.305871
        0.754267 -1.03889 -0.713599
        0.386581 -1.80693 -1.33317
        0.370893 -0.334366 -0.802094
        0.472014 -0.787591 -0.454466
        -0.6457 -0.80131 -0.0649507
        -0.0463498 -1.76686 0.403908
        0.236219 -1.32447 1.01984
        0.0796614 -1.72598 -0.365528
        0.405859 -1.22428 -0.231798
        0.100569 -2.61444 0.228462
        0.61462 -1.01689 -0.118748
        -0.0996468 -0.859137 -0.66953
        0.707453 -2.42517 0.138372
        0.313203 -2.29015 -0.0135301
        0.864888 -1.01566 -0.275112
        0.0139687 -1.5202 -0.0430085
        -0.813172 -0.687613 0.158083
        0.347181 -0.372844 -0.118127
        -0.830852 -1.34971 0.0698783
        -0.258571 -0.0206648 -0.316771
        -1.69933 -2.07966 0.856239
        0.290946 -1.25139 -0.597596
        0.100938 -1.12543 -1.04182
        -0.598996 -0.693785 0.495878
        -0.25631 -0.713141 -0.719329
        -0.37402 -1.52434 0.421432
        0.419386 -0.713239 -0.313826
        -0.168848 -2.47964 -0.233088
        0.0744767 -1.44307 0.604067
        -0.69322 -0.724619 -0.809135
        -0.0512217 -0.791484 0.755511
        -0.864333 -0.189809 -0.75023
        -0.213754 -1.153 0.339728
        0.0884 -2.88624 -1.30494
        -0.383792 -2.20107 -0.928912
        -0.139752 -1.12856 0.860983
        0.918705 -1.50543 -1.11302
        -0.417967 -2.03657 -0.887779
        -1.0984 -0.613248 0.127289
        0.91088 -2.13318 -1.24773
        -0.702902 -1.18268 -0.595687
        0.665581 -1.14477 0.0732103
        0.399816 -1.3593 -0.156093
        -0.743602 -0.787809 0.320725
        0.382637 -1.99485 -0.344546
        -0.275663 -2.34638 -0.154809
        -0.429734 -1.31508 -0.0980003
        0.229827 -1.39127 0.329552