<?xml version="1.0" encoding="UTF-8" standalone="no" ?>
<VTKFile byte_order="LittleEndian" type="UnstructuredGrid" version="0.1">
  <UnstructuredGrid>
    <Piece NumberOfCells="0" NumberOfPoints="1764">
      <PointData>
        <DataArray Name="velocities" NumberOfComponents="3" format="ascii" type="Float32">
        0.283411 -1.91582 0.965843
        -0.069421 -1.88717 -0.0485506
        0.521225 -1.36963 0.312191
        0.134273 -0.502776 0.429275
        0.728476 -0.816972 -1.09849
        0.119188 -0.790403 0.66853
        0.39399 -0.200366 0.0154395
        0.4607 -0.400233 -0.1799
        -1.12008 -1.54975 -1.47279
        0.164528 -0.940963 -1.07946
        -1.4968 -1.51903 0.315641
        -0.098668 -1.01621 1.07562
        0.0487925 -0.942151 0.173759
        0.937051 -1.13492 -0.132465
        -0.182829 -2.48551 -0.328557
        0.701143 -1.09785 -0.332768
        0.464028 -0.397421 -0.287736
        0.0999876 -1.92252 -0.19168
        0.0705919 -2.07606 -0.27088
        0.564633 -1.63791 1.22948
        -0.169281 0.49737 1.34319
        0.409953 -2.27737 0.724966
        -0.722908 -1.31692 0.367037
        -0.155117 -1.24745 0.0497684
        0.118693 -2.51236 -0.26983
        1.11498 0.563219 -0.692309
        0.151948 -2.47129 -0.0898776
        -0.307492 -2.21951 -1.33889
        1.02583 -0.023899 -0.128633
        -0.856894 -0.594542 0.696355
        0.494303 -1.89053 0.182454
        -1.19175 -3.28042 -0.721322
        -0.595 -2.27942 -1.20488
        0.798747 -0.24941 0.211133
        0.804498 -1.74395 0.0713126
        0.811914 -2.60437 -0.536658
        -0.173783 -0.613893 -0.449854
        0.8872 -1.65673 0.893765
        -0.130996 -1.19098 0.695718
        -0.11982 -1.48022 -1.12891
        0.61734 0.229101 -0.160467
        0.324466 -0.742591 -0.806729
        0.686779 -2.2319 0.961503
        0.734946 -2.91861 1.66434
        0.0909729 -1.43047 0.345424
        0.634804 -2.11156 0.015176
        0.97755 -1.22022 -0.310908
        0.885312 -1.15787 -0.0317202
        -0.47569 -1.10898 0.266868
        1.00778 -1.47164 -0.0929301
        -1.67973 -0.555052 -0.914109
        0.0727928 -1.2849 0.811788
        0.780162 -1.16117 1.89429
        -0.827566 -0.225256 1.65427
        -0.690961 -0.999173 0.519269
        -0.484287 -1.02992 -0.152903
        -0.801385 -1.11258 -0.0738091
        0.306061 -2.46848 -0.639276
        0.178168 -0.651955 -0.0816622
        0.935835 -1.49875 0.350276
        -0.241131 -2.73214 0.432163
        1.04184 -1.39381 -0.270666
        1.2099 -1.94912 -0.238712
        -0.740372 -1.01831 -0.00747595
        -1.14398 -0.871834 -0.359287
        -0.366442 -0.814844 0.399338
        -1.53302 -1.85031 0.0230771
        0.345691 -2.00933 0.0553138
        -0.128252 -1.07184 0.213676
        1.00677 -1.01244 1.20115
        -0.271159 -1.03329 -0.928131
        0.241137 -0.178207 1.04331
        -1.06715 -1.24472 0.075737
        0.684695 -1.5833 0.206122
        0.623157 -0.789254 -0.685335
        -0.95336 0.0984603 0.271243
        -0.785812 -0.0971604 -0.463288
        -0.310007 -0.706954 0.446209
        0.216312 -2.30412 0.581194
        -0.847125 -1.63293 0.401126
        0.527911 -1.89572 -1.50975
        -1.95241 -1.09491 -0.110468
        -0.34637 -0.854586 -0.0219072
        -0.0753383 -0.428593 0.127408
        1.25123 -0.630833 -0.870402
        -0.214459 -1.05561 0.521894
        -0.336815 -2.13097 -0.817267
        -0.102737 -1.82165 -1.08173
        0.0189064 -1.61145 1.47743
        -0.178281 -0.479601 0.807664
        -0.540523 -2.34058 -0.443897
        -0.485709 -1.24715 0.0268124
        0.909187 -1.12321 -0.833044
        -0.619957 -0.0523003 0.517192
        0.547225 -1.23055 0.307925
        0.200899 -1.19212 0.433997
        -0.081542 -0.673576 -0.604619
        0.536639 -0.756526 -0.673326
        0.367521 -2.04643 -1.3561
        1.02329 -2.43512 0.685259
        1.56061 -1.47807 0.0204102
        -0.76396 -0.569074 0.0876004
        -0.913484 -1.48777 0.267038
        -0.514702 0.284522 0.843655
        -0.640363 -0.794656 1.39507
        0.576312 -0.648174 0.19083
        0.101372 -1.23672 -0.428839
        -0.386665 -1.36015 -0.938725
        1.50764 -1.69662 -0.636558
        0.91162 -2.24017 1.21741
        0.514575 -0.790261 -1.08369
        -0.667279 -1.70046 -0.858179
        -0.0967688 -0.795212 -0.599946
        -0.443981 0.0523603 0.354657
        -0.477723 -1.35151 -0.664732
        -0.252622 -1.09499 -0.871984
        0.477092 -2.31652 1.30969
        1.62796 -1.36523 -0.244931
        -0.596819 -2.27917 -0.794622
        -0.961589 -1.65862 0.530186
        0.629891 -1.6803 1.46053
        0.435499 -2.45162 -1.23704
        -0.0276861 -1.26232 0.324045
        0.510961 -0.403305 -0.1549
        0.152365 -0.393911 -0.741002
        1.00662 -0.436508 -0.650067
        0.795556 -1.01045 -0.389217
        -0.208593 -1.19002 0.386314
        0.122632 -0.354474 -0.238705
        0.241011 -2.75604 0.75221
        -0.363963 -1.17739 1.04158
        -0.68234 -1.56915 -0.361524
        -0.859805 -1.11098 0.151565
        1.36781 -0.528743 0.593122
        -0.102197 -1.98496 -0.101933
        1.54646 0.364703 0.0826926
        -0.753439 0.487991 0.705163
        0.206544 -1.80613 -0.683003
        -0.573509 -2.25823 -0.389214
        -1.005 -1.82968 -0.311956
        0.705713 -1.20184 0.706794
        1.24691 -1.24209 -0.529443
        1.2295 -1.8102 0.261705
        -0.834317 0.272418 0.0985058
        -1.07864 -1.88716 -0.413643
        -0.309723 -0.797812 0.565807
        0.419628 -0.776032 0.375806
        -0.323817 -0.662544 -0.696499
        -0.066484 -0.337241 0.919071
        -0.778266 0.0636851 -0.0542183
        -1.37902 -0.776723 -0.192723
        -0.12691 -1.88209 0.173311
        0.674961 0.645041 1.34893
        -0.372242 -0.649125 -0.136148
        -1.19698 -0.979406 -1.25202
        0.26003 -0.875107 0.721335
        0.691227 -0.559238 -0.0862207
        -0.190269 -1.20964 0.115001
        0.142198 -1.64277 0.0158588
        0.758713 -0.224338 0.222335
        0.74805 -1.34285 -0.668638
        -0.146895 0.114733 0.866049
        0.0636841 -0.899477 -2.11293
        -1.84563 -2.5436 0.2557
        0.109422 -0.208466 -1.23841
        -0.48419 -1.21886 0.178636
        -0.0321996 -2.07595 0.82627
        -0.573759 -2.2495 1.06084
        -2.14105 -2.01218 0.21343
        -0.182822 -1.30553 -1.68682
        -1.33281 -1.4435 1.67905
        0.0747034 -0.236444 -1.12852
        -1.8596 -0.806804 -0.445367
        0.142424 -0.595161 -0.644527
        -0.698827 -2.63541 -1.95633
        0.366073 -0.724806 -0.260775
        0.454916 -0.370146 1.00316
        0.784757 -0.321771 -0.100401
        -0.880344 1.02084 0.560891
        0.215318 0.345513 0.961461
        -0.485661 -0.286239 0.766577
        -0.596141 0.0977871 -0.36576
        0.14052 2.12866 -0.290595
        -0.314479 -0.0697988 1.25191
        -0.245744 1.65392 0.756686
        0.646729 -0.0142619 0.0791303
        1.32339 -0.25056 0.354505
        -0.679308 1.33128 -0.759273
        0.854903 1.11847 2.47908
        -1.75705 1.20662 0.288152
        0.725959 0.146562 1.01752
        0.0846678 1.08422 -0.0381815
        0.255355 1.37059 -0.0192121
        -0.265097 0.117289 0.113626
        -1.26851 -0.0610376 0.217008
        1.30661 0.62524 0.350251
        0.0542563 0.817903 0.395688
        0.0617498 0.854564 -0.612611
        2.60731 0.352489 1.12898
        0.0188241 1.5686 1.46128
        -0.902004 1.70814 0.722708
        0.918188 0.0684535 1.22467
        0.518084 1.16902 0.975537
        1.54486 1.31909 0.425426
        0.0989941 0.206261 -0.0548452
        0.753158 1.29916 0.40638
        0.0861475 1.53834 1.28388
        -1.17229 1.34329 0.862681
        1.86092 1.4428 0.321869
        -0.975853 1.74058 -0.841902
        1.14578 1.77881 1.20107
        -0.770352 2.24183 0.733684
        0.35461 0.74114 0.738103
        -0.425579 1.40551 0.102675
        0.0290241 1.47922 0.714474
        0.317975 1.96612 -0.557034
        0.849305 1.99721 0.875054
        0.0633858 2.51247 1.66895
        0.621237 3.12051 -0.970233
        -0.895747 1.37917 0.570011
        -0.122142 1.11343 0.482654
        0.157911 1.11922 -0.28067
        -0.340362 2.12928 -0.424363
        -0.144944 1.89336 1.12845
        0.306021 1.02155 -0.317964
        -0.279896 1.55626 0.864474
        -1.22429 0.527242 1.59572
        0.238235 2.66322 0.967233
        -0.389585 2.02418 0.16603
        0.794201 1.17835 -1.47658
        -0.234797 0.486257 -0.424929
        -1.63297 -0.466963 -0.887734
        -0.311673 1.17544 0.372954
        -0.0444956 -0.159329 0.469607
        0.133626 1.35142 0.586241
        -0.315663 1.12301 0.233236
        -0.360522 1.99649 0.017154
        -0.781922 1.91444 -0.955668
        0.406185 0.902936 0.894627
        0.176458 1.79963 -1.13005
        -1.35678 1.78476 0.248432
        -0.150082 1.06722 -0.417177
        0.597362 0.131744 0.322113
        1.04425 1.45763 0.705308
        -1.64926 2.05975 -0.866574
        -0.00931911 -0.485445 0.380049
        0.888363 1.47694 -1.50099
        -0.239287 1.95138 -1.16279
        -0.285671 1.45224 0.754477
        -0.021661 1.42021 -0.298303
        0.478653 0.80351 -0.306594
        0.451915 2.14482 1.5365
        -0.877589 0.59604 -0.892219
        -2.19271 0.0160589 -1.21732
        0.421257 1.31786 -0.473885
        0.340437 1.77719 0.0110791
        -0.917375 0.991943 1.15781
        0.923435 1.97193 1.50262
        -0.187644 1.32729 -0.205143
        0.127982 1.17075 0.212275
        0.256624 3.6053 -0.871454
        -1.00832 0.111022 0.469137
        -0.93813 0.54073 -0.803945
        0.0892096 0.864055 -0.218974
        0.581654 1.47864 0.0870368
        0.783669 1.24867 1.31437
        -0.227701 1.16753 0.589028
        -0.761399 1.95827 1.00915
        0.364464 2.11907 0.285912
        -0.318409 0.704689 0.0882457
        0.0677704 0.793871 0.445237
        0.397297 1.48395 -0.295481
        -1.12368 0.775799 -1.31828
        -0.528209 0.427478 0.371445
        0.586181 1.70652 0.259389
        0.661039 2.97065 -0.71513
        0.730029 1.60469 0.135355
        -0.904194 0.520623 -0.0813241
        0.27504 1.11036 0.886025
        0.0889276 1.5985 -0.905762
        0.374151 1.16908 0.200759
        -1.48002 0.728914 -0.28597
        -0.317828 1.82404 0.167943
        -0.00604023 1.18385 1.15941
        -0.839266 1.37181 0.415834
        -0.493392 1.28037 -0.771251
        1.24481 0.908534 0.244161
        0.227211 1.68112 0.557904
        1.62826 1.26094 0.109867
        -0.834238 1.3948 -0.217039
        0.410316 0.202491 -1.08419
        -0.0892144 0.244841 -0.560633
        -0.062171 2.21043 -0.00725206
        0.784761 1.81472 0.125475
        -0.294363 0.734324 -1.31673
        -0.265427 1.21145 0.491347
        0.14086 1.19345 -0.276728
        -0.45119 1.65026 -0.100958
        0.800524 0.0253512 -0.0951797
        -0.445358 0.554685 -0.821219
        -0.35045 1.77092 -0.540411
        -0.156622 1.94252 -0.742462
        0.788655 0.914522 1.16412
        0.554673 0.672796 -1.62147
        0.0791067 1.10985 0.684848
        -0.794995 1.08771 -0.204157
        -0.675131 1.66098 -1.39466
        1.99735 1.24236 1.42152
        0.565974 -0.293468 0.666646
        0.384297 2.05163 0.573685
        0.761289 0.307925 0.55143
        -1.63717 0.976877 -0.337444
        0.380075 1.57124 0.48136
        -1.36306 0.711665 0.743996
        -1.01974 2.1208 -1.11738
        -0.0846422 1.48383 0.0214824
        0.374951 1.23149 1.52122
        0.324687 1.30574 0.317677
        -0.650461 0.130862 0.321632
        -0.29037 1.58796 -0.00978043
        -0.976842 1.18719 -0.132513
        0.804708 1.63135 0.0534736
        0.448913 1.26164 0.271352
        -0.506432 2.22724 1.40817
        -0.783818 -0.311721 -0.686792
        0.803095 -0.46777 0.112326
        0.412574 0.443071 -0.570122
        -0.169914 1.04269 0.749314
        -0.170776 0.990419 -0.245047
        0.87198 2.05031 -0.184511
        0.533567 1.28161 -0.127927
        -0.439888 1.3314 -0.78763
        1.015 1.43078 -0.197928
        -0.421657 0.945058 0.103092
        0.434547 0.560112 -0.616941
        -1.09881 0.993731 -0.785624
        0.468195 1.63468 -0.673616
        -1.46754 0.17972 -0.200658
        0.0698601 0.622353 -1.68334
        -0.835854 0.459525 0.034431
        -0.495626 1.32582 0.733347
        0.774634 1.32231 0.925162
        -0.483047 1.9775 -0.0628829
        -0.761223 1.04163 -0.459589
        0.644641 -0.150103 -0.26324
        -0.446959 0.712946 -1.11361
        -1.11885 2.06317 -0.113654
        1.2361 2.59516 0.989621
        -0.410344 1.78667 0.160757
        -1.13014 1.47812 0.443725
        0.297373 1.37638 1.03355
        -0.704303 2.50578 -0.959278
        0.0988688 0.463343 0.0276285
        0.440133 0.722034 -1.09604
        -0.0621909 1.98862 -1.0065
        -0.0035049 1.73382 -0.114809
        -0.417608 0.450431 0.153164
        0.969554 2.09103 1.09337
        0.537611 2.11243 -0.403367
        -0.580379 3.09251 -0.186462
        -0.719212 2.30506 -0.0619394
        -0.524211 1.28708 0.275573
        -0.239826 1.45286 -0.50883
        0.38709 1.2533 0.782309
        0.547258 0.195034 -0.587373
        -1.607 0.831825 -1.3698
        -0.909342 2.39189 1.10675
        0.857521 2.37376 0.0113992
        0.1781 2.12401 -0.960548
        -0.596431 0.917101 1.54606
        -1.23565 1.6666 1.18189
        -0.166109 -0.0163417 -0.197328
        -0.734114 1.88563 -0.966349
        0.0519538 -0.384944 1.01225
        -0.610707 -2.32779 -0.402841
        0.362565 -2.70081 0.568861
        -1.31162 -1.89684 1.19185
        -0.467509 -2.99373 0.256084
        -0.693118 -1.37945 -0.247565
        0.287507 -0.850704 -0.884807
        -0.0865994 -0.395468 -0.428262
        1.15475 -1.7743 0.00026615
        0.340595 -2.24727 0.686797
        0.65003 -1.96803 -0.0311411
        0.350937 -0.505541 0.144402
        0.253255 -0.397659 0.260491
        0.660385 -1.53714 -0.099104
        -0.400318 -0.588936 -0.268081
        0.028991 -1.2462 0.624499
        0.906713 -0.751205 0.336504
        -0.268251 -1.76683 -0.472959
        1.0608 -0.798081 -0.309904
        -1.18462 -0.933614 0.418635
        -0.430102 -1.74851 -0.697522
        -0.764632 -1.05992 0.184408
        -0.698302 -1.68289 -0.38696
        0.638163 -0.0866163 -0.123022
        0.693408 -0.0402507 -0.463874
        -0.419895 -1.82303 0.337328
        1.77279 -1.56777 0.436951
        0.603796 -2.0001 -1.73539
        0.490604 -1.12687 -0.534483
        0.724514 -1.02423 0.257311
        -0.480581 -0.19119 0.860828
        0.49151 -1.61968 -0.255163
        -0.321506 -0.666832 -0.08816
        1.30678 -2.15759 0.423294
        -0.691355 -1.24788 1.29293
        0.605139 -0.61784 1.08731
        0.231346 -2.03167 -1.38331
        -0.96179 -1.54898 0.796588
        0.660489 -0.977422 0.260427
        1.52591 -1.71818 0.650206
        0.995098 -1.11432 -1.77661
        -0.156762 -1.06292 -0.543131
        -0.996278 -0.668566 0.10973
        0.258133 -0.623825 0.444549
        -0.481064 -1.37429 0.402142
        -0.45523 -1.43335 -0.390308
        -0.599439 -1.8729 0.412288
        -0.931622 -1.1729 1.00931
        -0.561971 -0.928407 0.295002
        -0.718733 -0.449557 0.182092
        0.432227 -0.151115 0.403114
        1.58589 -1.36485 -0.293628
        0.244124 -1.06533 -0.186411
        -0.100348 -1.70748 -0.62535
        0.230523 -1.34677 -0.324645
        0.214672 -1.83521 -0.575836
        0.694757 -1.03067 -0.457895
        -0.770131 -2.01051 -0.260742
        0.511176 -1.65894 0.377877
        -0.673656 -2.11631 0.933626
        0.0736338 -0.308439 0.237383
        -0.0317845 -0.169705 0.398283
        0.392019 -1.7213 0.0311674
        0.730564 -2.62156 0.648191
        -0.979829 -1.86969 -0.630008
        -1.15687 -1.46456 -0.0142283
        0.0299646 -0.836044 -0.657419
        -1.26669 0.199704 0.0951229
        -0.53263 -1.00638 -1.28082
        -2.22819 -0.238237 -0.422965
        0.315005 -1.7082 0.317741
        1.12202 -1.64277 0.564804
        -0.489794 -1.38406 0.547496
        -0.388969 -0.789066 0.203967
        0.21904 -0.954291 -0.520199
        1.16782 -0.339519 -0.64666
        0.445405 -0.28148 1.12844
        -0.659552 -2.17243 0.275662
        -0.264405 -1.18497 -1.26931
        -0.0150634 -0.222553 0.473704
        0.686228 -0.565221 0.230081
        -0.00926557 -1.55775 -0.927507
        -0.337881 -1.78305 1.25571
        -0.968102 -1.81697 -0.499394
        0.674639 -2.90212 0.817328
        -0.539185 -1.4962 -0.88222
        -0.356047 -0.385039 -0.391744
        -0.967272 -0.319825 -0.188575
        0.208273 -1.88209 0.264955
        -0.397116 -0.971311 0.118157
        -1.37234 -1.1331 0.235617
        0.1896 -1.23571 1.39947
        1.67879 -1.65913 0.353878
        -1.41769 -1.60531 1.10189
        -0.899229 -1.84744 0.299137
        -0.246473 -1.43798 0.613598
        0.774379 0.734675 -0.918834
        -0.685787 -2.23429 -1.00684
        -0.787622 -0.51697 1.37611
        -0.357496 -0.512384 -0.245467
        0.849333 -1.6495 -0.294481
        0.367216 -1.75762 0.719392
        -0.106259 -1.88525 -0.163369
        -0.394249 -1.63996 0.968431
        -0.427094 -0.618382 -1.03138
        -0.259232 -1.35434 -0.291839
        0.470347 -1.20677 -0.755689
        0.0409855 -1.02241 1.56843
        -0.788978 -1.79042 0.550798
        -0.0752302 -0.645745 0.958857
        0.603339 -1.27906 -0.553821
        0.0565256 -2.32765 -0.713165
        0.607146 -0.895487 -0.217008
        1.46191 -3.12663 -0.411887
        -0.892634 -1.78348 0.739624
        -0.099925 -3.42424 -0.0578145
        0.569865 -1.64545 -0.0125644
        0.193153 -1.20301 -0.662673
        1.49818 0.0748425 0.217178
        0.13486 -1.46961 -0.554018
        0.166986 -1.73245 0.194076
        -0.0394199 -2.07348 -0.174377
        0.742562 -1.8723 -0.0457314
        -1.22355 -1.18055 -0.0303448
        0.615925 -2.55004 -0.409175
        -0.425152 -1.71972 0.382838
        0.579136 -1.60575 -0.344912
        -1.11996 -2.02787 1.95194
        1.23184 -2.29259 1.52163
        -0.524873 -0.245197 0.373406
        0.829187 -2.42796 1.22572
        1.40346 -0.651329 0.23567
        0.104312 -2.27904 -1.36955
        1.01715 -2.01416 0.301034
        -0.504347 -1.7213 -1.54106
        0.941084 -2.01754 -1.42679
        0.828217 -1.07999 1.38702
        -0.755835 -0.733465 -0.0483636
        1.08518 -1.10984 -0.767337
        0.97139 -2.29633 0.142613
        -1.1202 -2.2813 -1.9461
        -0.706304 -0.995969 -0.934002
        -0.0100883 -2.48218 -0.193256
        0.0706271 -2.09586 0.256985
        0.127528 -0.693979 -0.00980658
        -2.23437 -1.24502 0.887668
        1.19626 -1.28828 -0.816306
        -0.0584763 -2.02858 -0.0677678
        0.515626 -2.16511 0.548138
        -0.15929 -0.443012 -0.141433
        1.07826 -1.17885 -0.627316
        0.653813 -0.57997 0.44015
        0.273926 -2.87752 -0.468206
        0.254148 -0.805941 0.84004
        -0.588572 -2.46109 -1.46596
        0.518923 0.398761 0.821513
        -0.286141 -1.83732 -0.598345
        -0.403803 -0.411497 1.42387
        0.721079 0.459581 -0.505122
        0.291092 -1.62764 -0.639438
        -0.66528 -1.02016 0.19526
        -0.409535 -2.74607 -0.277268
        -0.22408 -1.10013 -1.02769
        -0.588903 -1.32775 0.859471
        -0.636462 -0.320901 0.222679
        -1.03858 -0.858901 -0.413412
        0.0377964 -0.0238426 0.561778
        0.324577 0.0949554 -1.23094
        -1.19252 -1.71803 0.181091
        -1.19936 -1.48278 -1.16679
        -0.153524 -0.64804 1.6987
        -0.493609 -1.32139 1.43275
        -0.407773 -0.576444 0.0658627
        0.42077 -1.29771 -0.676742
        -0.638548 -1.63757 1.12976
        -0.574837 -1.9655 0.171343
        0.0469742 -1.47463 -0.223521
        -0.440151 -1.40081 0.642355
        -0.258818 -0.767791 0.0750525
        -0.38914 -0.335221 0.615135
        -1.74195 -1.70715 0.356744
        -0.148375 -0.288827 0.109897
        -0.616564 0.0565934 -0.735837
        0.0298349 -0.270765 1.32179
        -0.917252 -1.21341 0.116009
        -1.079 -0.820809 -0.96806
        -0.346275 0.0974408 0.444462
        0.59249 -0.0350798 0.450501
        0.497363 -0.637728 0.0162326
        0.372397 -0.51122 0.845954
        0.265795 -1.64833 0.85027
        1.87531 0.274436 -0.574851
        -0.155805 -1.02329 0.293052
        1.35936 0.0849646 0.264011
        -0.696877 0.535947 0.11744
        -0.857232 0.212494 0.768956
        0.579859 -0.384431 -0.292121
        0.384533 0.0434371 0.363559
        0.786447 0.867499 0.35005
        0.961075 0.213733 -0.273244
        0.323367 2.0201 0.609334
        1.31988 1.5265 -0.160369
        -0.125212 0.0629621 0.2684
        0.305582 -0.0773104 0.122345
        1.18878 1.81171 -0.979401
        0.264844 0.222294 0.0609361
        0.952263 1.16387 -1.5697
        -0.22623 0.348675 -0.138024
        0.503541 0.802079 0.176415
        -0.178557 0.225832 0.155441
        -0.571357 0.363358 -0.170869
        -1.05218 0.934683 -1.10615
        0.260648 1.44719 -0.450527
        -0.859796 1.26676 0.0125134
        -0.460677 0.157865 -0.459749
        -0.823447 0.931997 -1.51943
        0.322079 -0.939816 0.0884317
        0.20611 0.233209 -0.233331
        1.00324 0.497741 0.608634
        0.324797 0.605367 0.359957
        -0.640496 1.77665 0.107631
        0.385611 1.10688 0.396115
        -1.38924 0.662076 0.826754
        -0.820811 1.46694 0.885547
        0.161023 1.25889 -0.13244
        -0.298098 0.433025 -0.719778
        0.472227 2.22167 0.554717
        0.632014 0.812386 -0.577467
        -0.312413 2.86211 0.0182013
        -0.432694 2.45126 -0.922678
        -0.127767 2.78976 -0.0464457
        -0.246069 1.38015 0.192474
        -0.554967 1.74261 1.29917
        -1.19576 2.40806 -0.705611
        -0.216255 2.47409 0.537744
        -0.858563 0.830319 -0.0921904
        0.314744 2.48365 -0.481817
        -0.151756 1.22679 -0.163371
        -0.754812 0.984331 -0.00357614
        -1.50339 2.60674 0.209303
        -1.30726 1.4329 0.456113
        -0.329159 1.26866 -0.726342
        -0.0350314 0.322706 -0.243587
        1.39419 0.29075 -0.335069
        0.0154691 0.405206 -0.608161
        0.394633 1.9241 0.14319
        0.952778 1.06763 -0.553418
        0.578651 0.696155 -1.05687
        -0.0550224 1.81425 -0.304416
        0.54453 2.89318 -0.0140984
        -0.97009 0.316369 -0.45272
        -0.477517 2.08262 -0.0166347
        -0.997236 2.78238 0.477225
        1.3229 2.15686 -0.10286
        -1.99865 1.04684 1.29155
        1.68485 1.10983 -0.213658
        -1.00403 3.17032 0.390909
        -1.30856 0.85294 -0.00855711
        -0.285183 0.85036 -1.64866
        0.154068 1.55549 -0.191761
        -0.18057 2.27092 0.955153
        0.360783 0.463084 -0.324355
        -0.0717832 1.78736 -0.160045
        -0.931115 1.55501 -0.621839
        0.292008 0.674336 -1.58588
        -1.81169 1.38576 0.214556
        0.219247 3.02075 0.397422
        0.346413 1.68442 0.313902
        0.724763 0.914721 -0.654251
        1.07583 0.687916 -0.0533675
        -0.436452 2.09515 0.755369
        0.0208341 -0.0540316 0.109753
        -1.39326 0.0177367 -1.46994
        0.284948 0.947591 0.5227
        -0.0802349 1.76358 -0.405702
        -0.72423 1.09798 -0.174601
        0.0678428 1.93092 -0.34888
        -0.413799 1.35445 -0.672708
        -0.315448 1.22237 -0.323872
        -0.41263 1.92624 1.20629
        -0.0374004 1.13185 0.814986
        0.579079 1.96515 0.427512
        0.853182 0.463551 -0.595003
        -0.116186 0.849286 0.82369
        -1.35199 1.87752 0.486764
        1.10383 1.99336 -0.678624
        0.447677 2.37872 0.382869
        0.923748 0.324361 1.03705
        -0.0364441 0.752842 -1.42345
        0.786587 0.876697 0.00548805
        -1.22208 1.39298 -1.20595
        -0.476951 1.98603 0.652031
        0.131865 1.00987 1.3455
        0.080705 1.57177 0.760644
        -0.55991 1.29062 0.288098
        0.968908 0.0116268 -0.443466
        -0.929663 1.9221 -0.99475
        1.18562 1.32967 -1.5074
        -1.34549 1.28967 1.48089
        1.1958 1.75937 -0.149097
        -0.234889 1.4016 0.466194
        1.00471 0.612407 0.211541
        -0.73076 2.26548 0.149543
        0.567757 0.718558 0.713967
        0.476098 0.857507 -1.18715
        -1.7071 2.11464 -0.662911
        -0.504536 1.18934 0.553497
        -0.674734 2.60316 -0.652704
        -0.850089 2.1541 -1.50538
        -0.570273 1.91549 -1.811
        0.292038 0.259815 0.467879
        -0.85347 0.942027 0.136093
        0.511734 0.873843 0.673374
        0.683466 2.19073 -0.367998
        -1.17855 1.56386 -0.769727
        -0.704741 1.99005 -0.94839
        0.440125 1.97657 0.985542
        1.09273 1.24061 -0.292935
        1.03189 1.08966 -1.52503
        0.298114 2.46054 0.359672
        -0.565407 1.1952 1.02472
        -0.157429 0.450429 0.302981
        -0.310048 0.710848 0.577251
        -0.461381 1.27708 -0.551168
        -0.897281 1.23146 -0.567184
        -0.429596 -0.101976 0.655066
        0.221358 0.661032 -0.0848866
        0.564366 2.30118 -0.418706
        0.00826203 2.6989 0.163714
        0.862764 3.39658 0.607093
        -0.713385 0.940052 -0.0711132
        0.715439 0.94875 0.424662
        0.0539563 1.46407 0.136373
        1.52345 0.561331 1.51775
        -1.43943 1.20239 -0.387142
        -1.3044 1.41247 0.460792
        0.751952 1.77686 -0.220943
        -0.0322631 0.548583 0.172268
        0.632309 2.00162 0.149953
        -0.141828 1.03422 -0.763811
        -0.39658 0.29116 -0.303378
        0.178805 1.67596 -0.537098
        0.156709 2.05751 -0.405051
        0.75573 2.14379 0.758159
        -0.949701 2.27617 0.320994
        -0.173438 1.982 -0.379582
        0.59073 1.19698 0.400032
        -0.130164 0.0158772 -0.890367
        -0.600585 0.517205 -0.270097
        0.95149 1.09757 -0.081399
        0.0610573 1.35043 -0.220281
        0.566937 1.50231 0.136521
        0.822273 1.22724 -1.37172
        -0.585404 1.94807 0.635552
        0.52225 1.67069 0.212422
        -0.847335 0.695706 0.368391
        -0.573118 0.163032 -0.104675
        -0.389151 1.23887 -0.0689082
        -1.20187 0.401747 -0.498709
        -0.07863 2.37289 0.115444
        -0.410631 1.39243 0.692092
        -0.945133 1.3865 0.924027
        0.233728 0.957921 0.300658
        -1.05463 2.01163 0.302965
        -0.861353 -0.00962979 -1.194
        -1.17624 -0.178043 -0.0890971
        0.426488 -1.27083 -0.650752
        0.647701 -1.3134 0.910737
        -0.389035 -1.31885 -0.371618
        0.814996 -1.83188 0.631447
        0.733516 -0.151744 -0.862683
        -0.166767 -1.8711 0.426604
        1.23877 -0.210634 1.18902
        0.093393 -0.754417 0.287394
        1.09766 -0.214956 0.0304342
        -1.183 -2.24187 -0.760914
        1.52993 -1.31392 -0.348825
        0.486495 -0.441329 -0.80977
        0.131276 -2.58899 0.813429
        -1.33986 -0.755634 -0.296725
        -0.865311 -0.743658 1.5313
        -1.39404 -0.838112 -1.38439
        0.447779 -1.9942 0.172235
        -0.270525 -0.885127 0.547454
        -0.779412 -0.22163 0.216798
        0.881784 -0.993724 1.37917
        0.435944 -0.34764 -0.710955
        -0.854916 -1.35198 0.780518
        -0.280521 -1.23025 -0.0924216
        -0.177013 -1.60171 0.204228
        0.193327 -1.45477 0.962187
        -0.669894 -2.18573 -0.446616
        -0.301435 -0.421994 0.604737
        -1.5578 -1.99277 -0.797767
        -0.821943 -1.77635 -0.577434
        0.332519 -1.7426 -0.188996
        -0.066527 -1.76841 0.635532
        -0.566325 0.00710216 0.328767
        0.109977 -1.50789 0.418005
        0.484119 -1.56172 -0.347084
        1.94716 -1.64264 -0.717922
        -0.694778 -1.18201 -1.19441
        0.359082 -1.40556 -0.486839
        0.508393 -2.22386 -0.137486
        0.863431 -1.18069 0.624078
        -0.625378 -1.32045 0.521447
        0.946685 -0.206452 -0.4899
        -0.265644 -2.23399 -0.205076
        0.0459927 -1.28796 0.254852
        0.915862 -1.77121 0.68174
        0.0188325 -1.7516 -0.883508
        0.0177443 -1.29145 0.728999
        -0.184075 0.194953 -0.0316527
        -1.13304 -1.19169 0.970696
        1.53697 -1.66257 -0.104468
        -0.401828 -2.04537 -0.0683942
        -0.305294 -0.93547 0.238572
        0.0861415 -2.05495 -0.12444
        1.01353 -2.12325 -0.950513
        -1.40375 -1.45221 0.0239816
        -0.323493 -1.88722 -0.165658
        0.760862 -1.43956 1.20677
        0.694031 -1.73634 -1.17502
        0.169117 -0.782734 1.1613
        -0.180945 -0.786462 -0.762744
        -0.164221 -1.19427 0.0105091
        -1.43616 -1.5887 -0.0294753
        -0.405133 -0.824502 0.166084
        0.494776 -1.11883 0.643571
        0.955498 -1.87237 -0.962859
        -0.195553 -2.41455 0.379759
        1.57597 -0.81657 0.147069
        -0.604078 -0.720745 0.361877
        1.02016 -1.49655 -0.175411
        0.414823 -1.18276 0.291376
        -0.442591 -1.2438 -0.852694
        0.343705 -1.87807 1.59014
        0.519332 -1.12799 -0.761346
        -0.586861 -1.61492 0.588359
        0.919303 -1.17129 -0.31629
        -0.356758 -1.22537 -1.02085
        0.88944 -0.102712 0.508787
        0.0117378 -0.81816 -0.392954
        0.842435 -1.80863 -0.985854
        0.224697 -1.23701 0.0778256
        -0.259889 -2.761 0.322643
        -0.400761 -0.938125 -0.460576
        0.130536 -1.6934 -0.412538
        -0.430066 -0.419649 0.940026
        0.356555 -1.15325 0.21481
        0.146877 -1.95443 -0.777049
        -0.0272841 -1.62726 -0.171247
        -0.71196 0.033877 -0.648675
        -0.998114 -2.31227 0.0227717
        -0.206361 -1.3297 -1.2879
        0.648262 -0.976756 -0.259307
        -0.412717 -0.759893 -0.215759
        -0.704988 -2.37366 -0.672585
        0.365297 -0.633729 1.199
        -0.866297 -2.72371 -0.271081
        -0.00599374 -2.00828 -0.318613
        0.470249 -0.762966 -1.00622
        -0.0130585 -2.31297 -1.32087