<?xml version="1.0" encoding="UTF-8" standalone="no" ?>
<VTKFile byte_order="LittleEndian" type="UnstructuredGrid" version="0.1">
  <UnstructuredGrid>
    <Piece NumberOfCells="0" NumberOfPoints="1764">
      <PointData>
        <DataArray Name="velocities" NumberOfComponents="3" format="ascii" type="Float32">
        0.828396 -1.09334 1.01824
        -0.333417 -1.83531 0.208104
        -0.242784 -2.03691 -0.474984
        -0.646741 -1.28448 0.447214
        -0.261154 0.55522 -0.97494
        -0.648852 -2.1252 -0.443352
        0.805445 -0.909495 0.488662
        -0.0857724 -0.725924 -0.776075
        -0.0417919 -0.863141 -0.320279
        -1.29932 0.283786 0.869232
        0.116206 -3.28582 0.455701
        -1.45898 -1.37544 -0.232818
        -0.92069 -1.82142 0.861269
        -0.0974893 -1.21705 0.423105
        -0.230232 -0.574709 -0.438708
        -0.00730394 -1.01139 0.648657
        1.07691 -2.17671 0.944949
        -0.846118 -2.24864 -0.0951372
        0.912149 -2.2191 1.15522
        -0.671882 -1.73741 0.32745
        -1.38319 -0.826632 0.184415
        0.10418 -1.24854 1.78487
        -1.03656 -0.530365 0.520343
        0.199072 -1.20908 -1.78201
        0.194748 -0.431418 0.130883
        1.03228 -1.50284 -0.54347
        -0.428957 -2.77123 0.163951
        1.19549 -1.42961 -1.52634
        -0.42041 -1.51753 0.340333
        -1.04655 -2.11207 0.760602
        -0.589781 -1.92665 -1.24151
        0.613875 -1.352 0.415354
        -0.401911 -0.39445 0.180333
        0.323488 -1.11117 0.941638
        -0.281624 -1.04669 1.14976
        -0.32214 -2.66916 0.662359
        -0.0800678 -0.87029 -1.17036
        -0.309142 -1.88708 1.05059
        -0.0495735 -1.42631 -1.3414
        -0.464392 -0.571167 0.450616
        0.917291 -1.212 -0.370906
        0.154736 -1.38721 0.171893
        0.909468 -0.798776 -0.853763
        -0.190108 -1.02515 0.402014
        0.316556 -2.08175 0.257276
        -0.606579 -2.12002 -0.236098
        1.16572 -0.06931 -0.756867
        -0.733552 -1.72927 -0.729282
        -0.304598 -2.61575 -0.661245
        0.581806 -1.21808 -0.0693745
        0.906124 -1.28734 0.0395346
        -0.277683 0.33952 -0.429709
        0.506915 -2.01846 0.59847
        -0.632264 -0.448085 0.192636
        -1.00484 0.35345 -0.682784
        -0.158943 -1.33747 1.2976
        -0.146155 -0.645625 1.53516
        -0.422903 -1.03987 -1.06299
        0.267168 -0.642666 0.523498
        0.234966 -2.40861 0.195972
        1.05214 -1.67698 -0.248343
        0.00174436 -1.20246 -0.0417514
        -0.194707 -1.0085 0.68458
        0.361332 -1.91654 -0.72121
        0.136972 -1.78299 -0.079309
        1.0367 -1.73809 -0.507581
        -0.505644 -2.47764 -0.564056
        0.447129 -0.0129823 -0.716669
        0.126494 -0.2284 0.814102
        0.349865 -2.04751 -0.660739
        -1.15682 -0.177884 1.13979
        0.00889208 -1.0853 1.67712
        0.25732 -1.10068 0.462745
        -1.68684 -0.918978 1.03292
        -0.129863 -0.517178 0.174883
        -0.85979 -1.54831 0.729681
        0.604778 -2.08068 1.02798
        -0.963294 -1.19038 -0.306677
        -1.54243 -1.29922 -1.86152
        -0.807413 -0.0771907 -0.467764
        0.728441 -2.56701 0.410057
        -0.231336 -2.27208 1.28508
        -0.704218 -2.3715 -0.605352
        -0.768361 -2.19535 0.735616
        0.0540153 -0.903005 -1.0696
        1.18789 -1.12765 -0.513269
        -0.998708 -0.180044 -0.304868
        0.57753 -1.69484 1.33501
        -0.807763 -1.32725 0.918125
        -0.446805 -1.50861 -0.150815
        0.479345 -0.830365 0.250785
        0.392028 -1.23094 0.489596
        0.569302 0.403906 0.865088
        1.10206 -0.731609 -0.61151
        -0.38762 -1.10342 0.242734
        -0.0989243 -1.25025 -0.0404576
        -1.09087 -1.19057 0.613535
        1.78108 -2.52364 0.326769
        0.870892 -0.247594 0.14352
        -0.173439 0.34981 -0.308484
        -1.26221 -2.96081 1.37332
        -0.670202 -2.40936 -0.410802
        -0.576776 -2.15496 -0.452453
        -0.432269 -2.43456 -0.847624
        0.263476 -2.01703 0.973635
        0.40332 -2.44418 -0.503191
        1.25952 -1.68563 0.15099
        -0.266494 0.131463 0.442322
        0.351673 -1.07102 0.61296
        0.726673 -1.10758 0.405649
        1.31528 -1.34291 -0.229968
        0.896151 -1.86915 0.325822
        0.367595 -1.67434 0.545115
        -0.76878 -1.24895 -0.410976
        -0.331423 -3.05868 0.133945
        -0.924284 -2.91976 -0.101684
        0.75437 -1.79949 0.225848
        0.0451534 -1.36973 -0.350296
        -1.37143 -1.34536 -0.762819
        0.0962599 -1.3943 -1.58518
        0.515158 -1.83384 -0.782659
        2.08967 -1.31908 -0.84576
        -0.640985 -0.883236 -1.18467
        0.0937634 -0.795832 0.422004
        -0.162318 -1.17704 -0.080344
        0.290555 -1.61591 1.10141
        -2.61648 -1.62506 2.11504
        0.421783 -2.12741 1.36207
        1.69135 -0.602935 0.017761
        -1.11721 -1.4689 0.545087
        0.537025 -0.481373 0.733469
        0.120233 -2.30094 0.111069
        -0.334691 -2.24238 -0.754109
        -0.839579 -1.39731 -0.135443
        0.444534 -0.355794 -0.122601
        -0.111352 -1.10964 0.0304275
        -0.288832 -1.45071 0.686025
        0.761536 -2.97629 0.631323
        -0.164699 -1.48282 0.0343066
        0.294818 0.129375 0.840648
        0.937506 -0.265489 -0.778252
        0.179296 -0.135277 0.712132
        -1.21507 -1.64796 -0.540392
        -0.39427 -1.82349 -0.751168
        0.0136862 -1.25351 -1.65337
        -0.429305 -1.23697 -0.276245
        -0.0892883 -1.46556 -0.00247776
        -0.29892 -0.608401 0.719297
        -1.5601 -2.25965 -0.99379
        0.975615 0.80136 -0.287276
        0.487853 -2.12707 0.120006
        -0.0838951 -1.95154 0.150828
        -1.36029 -1.91303 0.410704
        -1.48418 -1.47577 0.162895
        -0.182071 -0.475066 -0.577644
        0.648919 -1.98632 -0.286073
        -0.368196 -1.51625 0.364004
        -0.736176 -0.761031 -0.127236
        0.429004 -0.67105 0.0147051
        -0.115864 -0.275355 0.0609277
        1.86977 -1.14987 -0.824172
        1.0257 -2.39565 -0.187896
        -1.13562 -0.708017 -0.361967
        -0.240091 0.387882 -0.344872
        -2.27605 -1.2762 -0.663332
        -1.11724 -1.28511 0.697616
        -0.392515 -2.16383 0.726535
        0.557848 -1.22702 1.51983
        0.849072 -0.565601 0.247305
        -0.557199 -1.34495 0.960392
        0.490523 -0.756071 -0.944891
        0.129975 -0.913595 -0.563617
        0.472017 -1.11589 0.551777
        0.244002 -1.38849 0.411438
        -1.50216 -2.08493 -0.000630375
        -0.384309 -1.54954 0.52593
        -1.31264 0.568267 0.774621
        0.555855 -0.236843 -0.142015
        0.36378 -0.34787 -0.470944
        -1.05286 -0.855348 -0.309376
        -0.668933 -0.105648 0.170274
        -0.323226 -0.592699 0.908833
        -1.10484 -1.32261 0.556261
        -0.175585 -0.962923 -0.338327
        -1.00609 -1.0889 0.605545
        -0.982559 -0.16063 -0.624229
        0.499832 -0.984847 -0.562652
        -0.499095 -2.60107 0.26063
        0.045925 -1.56417 -0.075869
        -0.241523 -1.1903 -0.0913355
        0.0286061 -0.452696 0.463594
        0.546826 -0.97965 -0.501529
        -1.82722 -0.844766 -0.697923
        0.275551 -2.18861 -0.0585752
        -0.972693 -0.667954 -0.276389
        0.503173 -0.939285 0.866034
        -0.193499 -0.577176 0.284381
        -1.01911 -0.470729 -0.308876
        -0.798623 -0.196438 -0.330018
        0.491587 -0.305744 -0.287014
        0.784757 -0.321771 -0.100401
        1.87531 0.274436 -0.574851
        -0.0199658 0.384791 0.133379
        0.203844 0.095705 0.470813
        -0.230735 1.32405 0.224856
        -0.491947 0.22098 -0.355229
        1.01439 1.27942 -0.982152
        0.763362 0.416796 0.672265
        0.717265 1.12757 0.881475
        0.323589 -0.555792 0.548452
        0.0860424 -0.0630388 0.84724
        0.66385 2.3433 -1.03592
        1.47172 0.701619 1.01204
        -0.228483 1.28459 0.913187
        -0.1266 -0.70857 0.674965
        -0.832573 0.807929 0.153165
        -0.130486 0.311522 0.717903
        0.40941 1.54511 -0.814544
        -0.118354 0.778052 0.406853
        -0.517368 0.218961 0.0621216
        -0.0277425 1.22749 -0.14939
        1.14947 1.98191 -1.36887
        0.983934 -0.0497901 -0.028309
        -1.16482 0.887491 -0.500213
        0.426738 2.23973 0.223326
        1.50785 1.39472 0.534171
        -1.58322 1.29763 -0.304895
        0.142375 2.33118 -0.548492
        -0.0396339 1.87555 -0.883027
        0.738764 1.63622 -0.236994
        1.02969 1.81283 -0.39371
        0.0620961 1.55129 -0.425046
        -0.508611 0.833269 -0.179497
        1.05547 0.259091 0.299451
        0.606186 1.52609 0.782586
        -0.800275 1.01099 0.00548032
        -0.366771 1.87932 0.57755
        -0.136993 1.04058 0.692587
        -0.790324 2.16014 -0.264107
        0.362372 1.341 0.811045
        0.827894 3.65805 -0.28024
        -0.0797454 2.77988 1.7357
        -0.0831173 0.778542 0.284626
        0.00858838 0.563003 -0.274395
        1.21406 1.33247 0.539629
        0.677217 0.143208 0.273015
        -0.734444 1.48815 -0.810691
        1.3113 1.14481 -0.34768
        0.568497 1.32343 -1.61019
        2.06643 1.57243 -0.331224
        -0.809197 0.450816 -1.44382
        0.85339 1.28481 -0.753695
        1.13292 1.66127 0.289231
        0.345269 0.677668 0.832024
        -0.609402 1.30073 -0.701205
        -1.12094 0.102292 -0.454785
        0.860734 1.9688 -0.0154467
        0.324386 1.15496 1.95714
        -0.0349276 1.70227 -1.18691
        -0.545689 0.985218 0.434203
        -1.31895 0.86662 -0.451644
        -1.02307 2.84626 -0.294657
        -0.480422 2.15072 0.105801
        -0.293747 1.9152 0.833658
        0.50177 2.38582 -0.152044
        0.284017 1.70945 0.667514
        0.674152 1.04917 -1.46923
        0.623639 0.193684 -0.662346
        -0.28396 2.37931 -0.344487
        -0.568368 1.89174 -1.88635
        -0.133806 0.830254 0.574631
        -1.09459 0.971761 -0.325923
        0.0563813 1.771 0.933352
        1.28301 1.41 0.374706
        -0.162177 1.70025 -0.263464
        1.33219 0.681737 -0.644747
        -0.142218 1.51109 0.562814
        0.23234 0.918649 0.190878
        0.507646 1.5005 -0.198108
        -0.691697 1.09988 0.820784
        1.28813 1.32172 0.170403
        0.20269 1.98796 -0.252622
        -0.449364 0.0549775 -0.220596
        0.711222 0.400093 -0.635148
        -1.23923 1.5583 0.00540222
        0.695754 1.69902 -0.522849
        -0.26901 1.61291 0.2698
        -1.12683 1.78669 -0.649008
        -0.289838 1.00149 0.606444
        0.0854585 1.07848 1.1017
        0.770739 1.12551 -0.401902
        0.305213 2.4459 -0.22839
        -0.111623 1.38637 0.0619579
        0.0759438 1.58633 -0.803704
        0.805666 -0.00502504 -0.715506
        0.474247 0.667448 -0.0553389
        0.186696 0.70839 0.607792
        0.967157 1.80482 0.32287
        1.31008 2.40399 0.0683068
        -0.127447 0.99116 -0.477903
        0.551331 0.608978 1.33006
        -0.508301 0.508112 0.0712332
        -0.486824 2.12401 -0.101529
        0.333389 1.66282 0.91947
        -0.0176281 2.66839 -1.72633
        -0.66612 -0.768823 -0.0254306
        -0.877502 1.17771 0.705221
        0.493816 1.40347 0.292566
        0.490731 0.293822 -0.373679
        -0.0893605 1.33484 0.951356
        1.30347 1.57589 -0.261232
        0.203305 1.04049 0.465183
        -0.58059 2.82797 -0.108579
        -2.34233 0.260424 -0.806668
        -1.02064 0.839063 0.798767
        0.431829 1.01236 0.425533
        -0.53109 0.692376 2.40593
        0.336723 1.18012 0.120066
        0.441605 -0.753381 -0.15076
        1.60582 2.01184 0.118431
        -0.0198352 0.556859 0.0988532
        0.235851 2.5657 1.29682
        -0.107066 0.548548 1.03081
        -0.0374337 -0.562567 0.150353
        -0.109403 0.484971 -0.325299
        0.299491 1.054 -0.512806
        0.729568 1.57973 -0.0355075
        -0.661984 2.36282 0.251889
        -0.676677 0.0637831 0.409527
        -0.877439 0.427082 -0.714819
        0.405329 0.495445 -0.243687
        0.386257 -0.0651622 0.772224
        -1.06852 1.13208 1.03932
        -0.243904 0.864949 0.102403
        1.11964 0.747673 0.115458
        0.032106 0.933084 -0.42864
        -1.4242 2.08972 -0.370335
        0.371804 1.2242 0.11559
        0.47056 1.09011 -1.44205
        -0.618654 -0.383978 0.549221
        0.339888 2.60156 -1.3927
        -0.944459 -0.533499 -0.035309
        -1.0445 1.21847 -0.740904
        0.276451 1.68391 -0.688175
        -0.220274 2.41826 -0.255534
        0.239257 1.38928 -0.662301
        -0.34981 1.20038 -0.136868
        -0.139631 2.06572 1.39973
        0.395372 0.310418 -0.310625
        -0.704546 1.08844 -0.243266
        -0.84837 1.26903 -0.389552
        0.379293 1.92212 0.191194
        -1.37775 1.27579 -0.0307327
        -0.678896 1.23223 1.12132
        0.551861 0.804733 -0.237004
        -0.999615 1.44664 -1.53197
        -0.531205 0.499818 -0.576435
        -0.205061 0.694061 0.8285
        -0.601419 1.54268 1.10592
        0.906342 1.07553 0.518811
        0.391026 0.133424 0.477948
        -0.236603 1.69979 0.292381
        -2.08076 1.9862 0.933831
        0.189772 1.42041 -0.10253
        0.689497 2.07896 1.0328
        0.200125 0.675756 -0.0554432
        -0.525061 1.53945 0.666718
        -0.332516 0.373367 0.702706
        0.044907 -0.285874 0.152131
        0.0992801 1.39485 0.246067
        -0.108926 2.42176 -0.39692
        -1.01061 1.65955 -1.32997
        0.761159 1.64499 -0.774296
        -0.827731 2.15208 0.315457
        -0.680195 2.43782 -1.7104
        1.22489 0.72079 -0.436295
        -1.50628 1.68767 1.38929
        0.190734 2.18122 2.07035
        -1.10073 3.00043 0.385574
        0.214302 1.78763 -0.204451
        -0.477023 1.58204 -0.461073
        0.332891 1.77604 -1.02405
        -0.118521 1.30127 -0.643962
        0.234261 -2.14692 0.283886
        -1.23779 -1.95068 -0.227991
        0.58605 -1.07698 0.328386
        -0.768972 -1.44337 -0.962908
        0.136616 -2.83742 -1.13672
        0.365458 -1.13607 0.0666432
        0.378584 -0.640739 0.682412
        -0.143407 0.166665 -0.549591
        0.94745 -0.276099 0.54522
        -0.147721 -1.17261 -0.292201
        -0.125966 -1.60619 -2.53386
        1.34677 -2.17277 0.540349
        0.882745 0.181467 1.43227
        -1.02908 -1.54166 -0.790873
        0.984059 -1.2349 0.936833
        -0.732451 -1.60336 -0.149989
        -0.785102 -0.724234 -0.813279
        -0.111322 -0.00793405 -0.114621
        1.33308 -0.745096 -0.61296
        1.23431 -0.894533 -0.580208
        0.491548 -1.59691 -0.463038
        0.0219363 -1.19459 -0.622875
        -0.714827 -1.98687 2.39788
        0.513561 -2.01069 0.047825
        -0.0816085 -1.95482 -0.658638
        0.411075 -2.25996 -0.303932
        0.0306614 -1.5342 0.571497
        0.428095 -1.72819 0.19212
        -0.0910593 -3.0271 -1.644
        0.918263 -1.45517 -0.179792
        -0.401091 -0.33372 0.281794
        1.15084 -1.02353 -1.27547
        0.236144 -0.349583 -0.483696
        -0.038273 -0.852425 0.427793
        -0.252359 -0.879372 -0.941282
        -0.541497 -1.83941 0.13064
        -0.821322 0.147037 -0.335672
        0.186072 -1.08085 -0.408558
        -0.301597 -2.33993 -0.306781
        -0.400611 -1.25245 -0.305286
        0.836357 -2.39475 -0.408298
        -0.607231 -1.1625 -1.38031
        -0.212194 -1.39268 -0.114672
        0.416346 -0.486905 0.72482
        1.71817 -1.59328 0.547393
        0.773352 -1.61091 -0.520463
        0.426083 -0.281932 -0.803521
        0.373113 -0.411939 -0.16765
        1.23266 0.310922 -0.061283
        -0.379268 -0.390662 0.742292
        2.13599 -1.09515 -0.39595
        -0.576094 -1.71536 -1.42612
        0.473318 -1.64073 -0.0511348
        0.495914 -1.36533 0.469776
        -0.104205 -1.5933 0.321799
        -1.30253 -1.01846 0.23716
        0.376148 -0.461895 -0.0288114
        -1.07578 0.229466 0.786621
        0.508195 -1.89195 -0.0620597
        1.82466 -1.48202 1.25548
        -0.416777 -0.833032 -0.536933
        -0.512272 -2.34725 0.255816
        0.57581 -1.59269 -0.678797
        -0.30341 -0.741767 1.3614
        0.736557 -1.59188 -0.135288
        -0.038885 -1.47885 0.674594
        0.820391 -1.728 0.20761
        -0.0893645 -2.50398 -0.195587
        0.198046 -0.860365 0.300654
        0.281978 -1.43434 -0.45008
        -0.461723 -1.57036 0.0571215
        -0.353427 -1.75593 0.0379308
        1.90747 -2.27978 -1.62945
        0.336968 -0.944088 -0.0882429
        -1.29505 -0.899063 0.176422
        0.038306 -2.28286 0.247674
        0.652288 -2.56866 0.309874
        0.0514661 -0.86592 -0.94988
        -1.37182 -0.82624 0.891857
        -0.730155 -0.949032 0.229055
        -0.0767655 -1.25844 0.223922
        -0.237289 -1.37282 -0.450697
        0.732905 -1.62017 0.335339
        -1.12333 -1.10102 0.348659
        -0.0144284 -1.40842 -0.182242
        -0.422496 -0.247801 -0.408793
        0.722818 0.206199 -0.442453
        0.539193 -2.19553 -0.641511
        0.437013 -1.78708 0.998038
        -0.909887 -1.71205 0.775137
        0.586553 -1.32401 -0.479429
        0.0932599 -2.66937 1.71736
        0.684325 -0.774985 0.0985637
        0.0206929 -0.7966 -0.00653878
        0.310109 -1.92452 1.40854
        -1.80312 -1.28476 -0.285082
        0.751632 -0.265249 0.527959
        1.48189 -0.788465 0.34065
        0.782183 -1.31174 0.171868
        0.142862 -0.115251 0.383697
        0.581368 -0.408683 0.263306
        0.10034 -1.86725 1.19335
        -1.55043 0.116176 -0.516864
        -0.717481 -1.2009 -1.09335
        0.989261 -0.568719 0.413676
        -0.468537 -0.476301 -1.63212
        0.831096 -2.41882 -0.568867
        0.627447 -0.344658 -0.975864
        -0.925738 -1.33754 0.971106
        0.916568 -2.43765 0.416542
        -0.426087 -1.67859 -0.676358
        0.0352017 -1.16958 -0.0724848
        -1.04307 -2.22953 -0.544228
        0.024136 -1.74237 -0.178958
        1.98551 -1.41737 -1.52458
        0.0594554 -1.05022 -0.740052
        0.723996 -2.50184 0.351261
        -1.2886 -1.32485 0.355798
        -0.394508 -1.23081 0.553015
        0.482021 -1.3319 1.48936
        0.751265 -0.541774 -0.272124
        0.600865 -1.90081 -0.688142
        0.103404 -0.924644 -0.361402
        -0.652088 -2.0097 -0.695656
        -0.631022 -0.247658 -0.388032
        -1.47291 -1.46971 0.620717
        0.622786 -0.667921 -0.806108
        -0.248091 -1.23998 -0.236749
        -0.0687267 -2.45225 0.516088
        0.29353 -0.869224 0.777448
        -1.09567 -2.38276 -1.05936
        0.834775 -1.37696 -0.71479
        -0.133318 -0.774027 0.344552
        -0.667663 -2.89867 0.00589774
        0.440605 -1.35445 0.158405
        0.0531602 -1.58923 0.532313
        0.0243582 -1.52529 0.0473953
        1.17343 -1.2995 0.238604
        0.0755251 -1.15785 -0.832443
        -0.90106 -1.0262 0.121198
        -0.254264 -1.21428 0.857884
        -0.398335 -1.69244 0.338698
        -0.946253 -2.22534 -0.0425675
        0.987666 -1.53133 -1.16808
        -0.892634 -2.44546 -0.958533
        0.655348 -1.96803 -0.130286
        -1.05387 0.696706 0.634514
        -0.228396 -0.167715 0.128246
        1.23103 -1.19069 -0.648375
        0.0152471 -0.548563 -0.477691
        1.07556 -1.95964 -0.76232
        1.04867 -1.15224 1.43361
        -0.879569 -0.681515 -0.851211
        0.640802 -1.62754 -1.02209
        -1.35055 -2.88789 -0.608367
        0.932299 -2.0595 -0.12672
        -0.0908509 -1.82913 -1.25439
        -1.16766 -2.62514 -0.503945
        0.249129 -1.2344 0.103493
        -0.0196613 -1.08907 0.527057
        -0.268278 -0.837414 0.553107
        0.456107 -1.45703 0.233027
        0.546019 -0.206647 0.531297
        -0.337695 -0.929606 -0.890035
        -0.471271 -2.1695 0.522833
        -0.282204 -1.69918 0.133303
        0.50329 -0.34564 0.211503
        0.0734879 -1.00076 -0.688131
        0.540829 -1.03434 -0.481931
        -0.837891 -1.84246 -0.615788
        0.69506 -1.42504 0.604624
        -1.25247 -1.28192 0.440051
        -0.554947 -2.98617 0.524684
        -1.05258 -1.5753 0.630968
        -1.31414 -2.1717 0.246274
        -0.0973324 -2.23697 -0.0775284
        0.0352676 -2.52209 -1.18676
        -1.06653 -0.341133 -0.648699
        0.221222 -0.880639 -0.252487
        -0.591539 -1.26103 0.599409
        -0.7884 -1.19495 0.194005
        0.203613 -0.691387 0.685191
        -0.421536 -0.662992 1.98849
        0.141065 -0.450786 0.0670879
        -0.631167 -1.3082 0.842136
        0.197041 -0.849964 0.509205
        0.0220866 -1.44549 0.692545
        0.460468 0.733323 0.104482
        0.309963 0.380593 0.75154
        0.596784 0.155049 -1.47579
        0.650203 1.34766 -0.904866
        -0.0544039 0.0999498 1.34484
        0.991781 -0.154542 0.655839
        -0.243043 -0.569092 -0.811056
        0.524611 -0.361924 0.752354
        0.789256 0.950132 1.29736
        -0.108085 0.771538 -0.900361
        1.244 0.291853 -0.407906
        1.06272 -0.049464 0.593347
        -0.947225 0.754623 0.743826
        -0.526144 0.327378 -1.0897
        -1.34242 0.457701 -1.30985
        0.439255 0.69551 -0.902866
        -0.249331 0.735924 -0.0220399
        0.532016 -0.48998 -0.0891032
        -0.672924 1.3384 0.069757
        0.0280076 0.651022 0.498158
        -0.0711206 0.872121 -0.185076
        -0.0725016 0.520945 -0.0174653
        0.602373 1.86349 0.565779
        -0.841581 -0.219897 -0.504915
        1.38161 1.7086 0.20641
        -0.354586 0.205314 0.148319
        -0.314451 1.31497 -0.495044
        0.117635 2.11693 -0.464311
        0.473417 1.04549 0.530962
        1.15917 1.35491 0.884529
        -0.921175 0.774995 0.119457
        -0.362862 1.73538 -0.113614
        0.169883 1.3556 -0.565962
        -0.380806 0.883999 -0.43621
        0.0980503 1.4307 0.363288
        -0.284591 1.89775 0.184152
        1.09289 0.770834 0.250097
        1.64297 0.420147 0.277101
        0.662022 1.69643 0.0146362
        -0.481518 1.12342 0.133723
        0.735285 0.669358 -0.405195
        -0.585969 -0.0756304 0.364812
        1.22462 1.3068 0.0469621
        -1.26565 0.86848 1.21026
        0.0818695 0.184723 -0.709749
        -0.743173 1.47723 0.0339139
        1.67522 0.708213 -0.795993
        -1.11905 0.961492 -0.611903
        -0.988232 2.68231 0.471439
        0.768312 1.95598 0.412334
        -0.107684 1.23318 0.523527
        -0.0600539 1.45975 -0.848349
        1.02925 1.47625 0.431985
        -0.402142 1.11251 -0.688643
        1.23773 1.10774 0.385481
        -0.0996016 0.813991 0.869841
        0.458051 0.293224 1.35273
        -0.345694 0.18295 0.414127
        -1.53937 1.57564 -0.43831
        -0.273219 2.05768 -0.840296
        0.0181078 0.939859 -0.775321
        -1.72563 0.0173743 0.558662
        -1.37843 0.941295 -0.717201
        0.548398 0.915381 0.536661
        -0.250996 0.184585 -0.569992
        0.354211 1.5634 0.649465
        -0.2187 1.14026 0.0581034
        -0.0185835 0.91162 -0.201807
        -0.879137 1.70277 1.41594
        -0.243279 3.0435 0.769886
        1.09922 0.734498 1.12584
        -0.122732 1.07739 0.095915
        -0.421764 1.93072 -1.05984
        0.0316523 0.832959 0.827473
        -0.478043 0.562836 -0.150493
        0.750905 1.12943 0.394218
        -1.01899 1.17486 0.0653535
        0.596266 0.233025 -1.22042
        1.45198 0.967012 -0.934053
        0.683169 2.53636 -0.428788
        -0.525561 1.49797 -0.578162
        0.0481828 1.66421 -0.447202
        0.157374 1.99634 -0.77082
        0.212797 1.67948 -0.172672
        -0.313871 1.21462 0.189199
        -1.45405 2.32329 -0.838882
        -0.99969 1.35008 0.0574477
        -0.190943 0.33628 -0.14411
        0.189337 1.56822 -0.176914
        -0.803465 1.85477 -1.13543
        -1.10129 1.80279 -1.18278
        1.09303 1.74267 -0.0421087
        -0.262908 3.18946 0.499849
        0.161265 0.904842 0.647273
        0.51208 0.631944 -0.4251
        0.1708 1.58343 -0.449574
        -1.35956 1.74408 -1.05072
        0.191799 0.879424 0.280471
        -0.0380921 1.43691 1.03395
        0.534655 0.714329 -0.459791
        0.49525 1.82484 0.0688121
        -0.645362 1.45931 0.469466
        0.328971 1.56719 -0.916942
        -1.52607 1.70926 0.682491
        -0.900882 0.412036 -0.0145041
        0.351206 0.276736 -0.567662
        -0.808246 1.09058 0.224014
        -0.0923694 1.15331 0.00989872
        0.519156 0.807284 0.519249
        1.17138 1.94306 -0.209943
        -1.09375 3.08335 0.204689
        -0.614075 1.0271 0.370454
        -0.17568 1.89375 0.296542
        -0.30804 1.08714 0.191882
        0.271154 1.54162 -0.387838
        1.10606 1.42578 -0.560457
        0.626552 0.52109 0.997282
        1.05261 1.48482 -1.34296
        -0.258825 0.960224 -0.360669
        -0.358907 1.63059 -1.4645
        1.25996 1.35103 -0.504775
        0.64507 0.790221 -0.229124
        -0.650814 1.14222 0.147308
        -0.312588 1.89451 -0.153365
        0.24365 0.769724 0.319084
        0.514847 1.34488 0.860529
        0.135621 1.44668 0.00284018
        -1.03441 2.00815 -0.816837
        -0.858882 1.83226 -0.185039
        -0.774151 2.00467 -0.499552
        -0.865199 1.77568 -0.190214
        -2.165 0.346776 -0.240838
        -0.254342 1.763 1.12287
        -0.49712 1.62833 0.692281
        1.52789 1.73892 -1.3674
        -0.639931 0.678308 -1.64223
        0.281503 1.61462 -1.02215
        0.145665 2.11522 0.261502
        -0.857819 1.42062 -0.544751
        0.241208 1.96483 -0.22133
        -1.21415 1.94759 -0.153924
        0.212789 0.146865 1.13295
        -0.115175 1.25122 0.264615
        -0.636459 1.55496 1.01002
        -0.248098 1.817 -0.516775
        -0.653532 0.942189 0.541138
        -0.0489219 2.11719 0.233107
        0.453636 1.69321 -0.01181
        1.06344 2.32367 0.492308
        0.460935 0.872945 0.199919
        0.710044 0.782071 -1.44783
        -1.05215 2.12248 -0.222365
        -0.413143 2.11853 -0.29028
        -0.0663509 1.56963 -0.706737
        0.596138 1.74058 -0.0884989
        -0.37745 1.11032 -0.674721
        1.13104 2.66432 -0.54953
        0.649524 1.15845 -0.0711117
        -0.653159 2.70528 -0.364665
        1.42563 0.73097 -1.01795
        0.59545 0.9076 0.292257
        0.899076 0.128653 -1.89647
        -1.04108 1.6102 -0.0272163
        0.498906 0.687407 1.06151
        -0.114374 2.30184 0.0892472
        -0.318666 0.203067 0.730951
        0.409514 -0.822324 0.268759
        -0.848172 -1.37804 0.632618
        -0.48085 -1.71839 0.636572
        -0.124649 -0.862519 -2.3445
        1.79028 -2.544 0.672531
        0.746538 -0.636059 0.211412
        -0.383926 -1.96869 0.507521
        -0.617588 -1.947 1.54346
        -0.532259 -0.06293 -0.131399
        0.550206 -1.46016 0.661243
        -0.557038 -1.69127 -0.068929
        -0.0712529 -0.449818 0.909438
        -0.00219224 -0.459863 -0.451902
        -0.5261 -0.161158 0.242561
        0.266452 -1.58519 -1.13518
        0.208458 -1.09418 1.52011
        1.10662 -1.72377 -1.30342
        0.11407 -1.45482 0.850491
        -0.389557 -0.205294 0.506695
        0.685281 -0.897751 -0.791569
        -0.954147 -1.5534 -0.404357
        0.59795 -1.51354 -0.443319
        0.286313 -2.47923 0.56277
        -1.09459 -2.19054 0.7666
        0.75235 -1.96015 0.0503752
        0.539162 -1.07071 0.285259
        -0.0622853 -0.545444 0.360885
        1.31425 -1.86708 0.0753947
        0.374998 -1.26044 0.745973
        0.904704 -1.8967 0.616709
        -0.0632973 -2.0672 0.327112
        0.386734 -0.543773 0.596956
        1.52113 -2.32367 -0.897056
        0.893269 -0.207866 -0.59425
        -0.194734 -1.79858 1.52787
        -0.12016 -0.234561 -0.322401
        -0.407191 -2.68808 -1.77508
        0.48788 -1.41623 -0.30727
        -0.706314 -0.0239154 0.528213
        -0.0421476 -0.232447 1.05346
        -0.699465 -0.616877 0.348378
        -0.0619174 -1.61533 0.258918
        -0.199845 -0.844903 0.684786
        0.516374 -1.61038 0.16689
        1.03614 -1.45178 1.52399
        0.766896 -0.956705 -0.370794
        0.26778 -1.46024 0.297521
        0.0950023 -2.05489 0.397099
        0.173072 -1.7984 -0.566658
        0.172342 -2.36558 0.842317
        -1.55406 -1.64469 -0.563741
        -0.0454116 -0.914874 0.811601
        0.274396 -1.91655 -0.604208
        0.175433 -1.066 -0.00708508
        0.103299 -0.656082 -0.321763
        0.593197 -1.6959 -0.701453
        0.382472 -3.07586 0.819306
        0.422867 -3.08524 0.600012
        -0.294006 -1.68973 -0.392981
        0.60202 -0.816538 0.714394
        0.298007 -1.6051 -1.31662
        0.562179 -0.592339 0.325125
        -0.146733 -2.03151 0.020187
        1.36654 -1.82726 -0.791163
        0.88476 -1.59482 0.404624
        0.639276 -1.03175 -0.0759452
        0.00479656 -1.0714 -0.289188
        0.482586 -0.346906 -1.47938
        0.592943 -0.380151 -0.222818
        -0.141138 -1.56652 0.27331
        -0.670004 -2.18729 -0.482445
        0.211014 -0.517827 0.603158
        -0.882597 -1.70428 0.707871
        0.381425 -2.89534 -0.987058
        -1.21048 -1.76056 -0.146936
        -1.19444 -0.763103 0.253415
        1.516 -2.22876 0.329015
        -0.515036 -1.46297 -0.41985
        0.079085 -0.609771 0.342765
        0.145408 -1.52154 -0.0136204
        -1.47094 -1.06118 -0.379539
        0.912225 -0.383974 -1.44591
        -0.663789 -1.4726 0.11875
        0.998362 -2.02794 -1.26161
        -0.217054 -1.22713 0.231072
        0.95493 -0.570921 -0.285144
        -0.901252 -1.14107 0.984371
        1.1819 -0.865827 -0.459656
        -0.257423 -2.03456 0.432779
        -0.72432 -1.50105 -1.2525
        0.6731 -1.4803 0.501535
        -0.502447 -1.16419 0.118872
        -0.119035 -1.84628 1.20618
        -0.471755 -1.21895 -0.0701034
        -0.0470349 -2.20532 1.7531
        -0.0579019 -1.74615 0.362136
        -0.127163 -1.45261 0.127537
        -0.353897 -2.71384 0.723459
        -0.00672722 -1.03873 0.463797
        -0.265131 0.0116652 0.814797
        1.62024 -1.93855 -0.68472