<?xml version="1.0" encoding="UTF-8" standalone="no" ?>
<VTKFile byte_order="LittleEndian" type="UnstructuredGrid" version="0.1">
  <UnstructuredGrid>
    <Piece NumberOfCells="0" NumberOfPoints="1764">
      <PointData>
        <DataArray Name="velocities" NumberOfComponents="3" format="ascii" type="Float32">
        -0.0176834 -1.79619 0.388322
        0.597401 -1.11489 0.862067
        -0.64274 -0.938222 0.3828
        0.494889 -1.52623 0.588621
        -0.138572 -0.723992 -0.3885
        1.44831 -1.64125 -1.15847
        0.444287 -1.69134 -0.116744
        0.55846 -1.49311 -0.079419
        0.635044 -1.3734 0.412646
        -0.245501 -1.48986 0.431706
        -1.05625 -0.998486 0.119804
        0.495808 -2.23092 -0.448888
        1.01246 -0.503156 -0.0986915
        -0.0562121 -0.646992 -0.0382757
        0.668766 -2.46393 0.633699
        1.48934 -1.05276 -0.95981
        -1.03892 -1.84149 -0.646601
        -0.239242 -1.36744 0.825163
        0.547021 -1.24442 -0.407172
        0.476265 -1.11163 -0.688386
        -0.571108 -2.37506 -1.0374
        0.731945 -0.68968 0.121915
        -0.560093 -0.0302949 -0.879452
        0.856524 -1.25841 0.609163
        -0.718808 -0.621275 0.741045
        -0.10416 -0.318849 1.32689
        0.248636 -1.51506 -0.585285
        -0.221999 -0.354607 -0.211125
        -0.557823 -1.05961 0.356472
        0.760056 -2.07973 0.232617
        -0.187411 -0.382559 -1.27356
        0.442787 -0.0623331 0.940176
        0.692729 -0.488854 -0.250672
        1.14975 -0.821319 -1.52816
        -0.656555 -0.447541 0.269924
        -1.08801 -2.57586 0.662842
        -0.348 -0.922238 -1.04213
        -0.322972 -0.799531 -0.271715
        -1.56046 -0.761071 0.275508
        0.00451386 -0.107591 -1.38015
        1.61272 -1.38492 0.341383
        0.136523 -1.82046 -1.5212
        0.102368 -2.05626 -0.485486
        -0.00246571 -1.70478 -0.338971
        0.105827 -0.975213 -0.744697
        0.495073 -1.41886 0.844726
        0.544984 -1.02001 -1.00453
        -0.304894 -2.04601 -0.940882
        1.63648 -1.96526 -1.13957
        1.09768 -1.39159 0.0675451
        -0.871791 -0.255201 0.371364
        1.37236 0.363858 -0.691314
        -1.53423 -1.4344 0.361781
        -0.77872 -1.5743 -0.494427
        -0.342687 -1.67301 0.406804
        -0.479735 -2.00831 1.28974
        -0.260875 -0.468995 -0.310546
        -0.326463 -1.15202 -0.464105
        -0.77013 -0.293639 0.710054
        0.885944 -1.50297 -1.28424
        -0.856457 -0.818617 1.71065
        -0.686138 -1.09485 0.0512402
        0.507422 -0.128209 -0.82202
        0.891181 -1.3784 -1.32873
        -0.314783 -1.16559 0.356507
        0.372189 -1.13158 0.229174
        -1.17405 -1.48796 -0.00416866
        -1.29427 -1.05488 0.130824
        0.607958 -1.54107 0.0678111
        -0.451328 -1.52319 -0.70369
        -1.07087 -1.39409 0.234624
        0.713447 -1.65787 0.911423
        -0.59363 -0.537061 -0.668418
        0.119122 -1.7718 0.119573
        0.222364 -2.70949 -0.231196
        -0.310209 -1.21308 -0.0710897
        0.245458 -2.05075 0.232619
        -0.220539 -0.848033 0.472447
        -0.449293 -1.20816 -0.495414
        1.24463 -1.49919 0.836116
        -0.936917 -0.797059 0.621476
        1.22126 -2.48082 -0.0530505
        0.674703 -0.221532 0.136317
        0.735665 -0.950128 -0.423015
        1.05563 -1.04737 0.265968
        -0.281531 -2.23384 -0.679584
        -0.54377 -1.55388 0.888018
        -1.14322 -0.157647 -0.316594
        -0.649935 -0.393867 0.666673
        1.00519 -1.33002 1.15855
        -0.35268 -1.8278 -0.32218
        0.566579 -1.3497 0.0914405
        -1.59264 -1.68772 -0.366799
        -0.270114 0.0459545 1.41569
        0.969103 -3.16845 0.92361
        -0.513161 -0.384465 0.056784
        -0.447842 -2.30085 0.538707
        -1.35413 -0.306794 0.518146
        0.796771 -1.52912 -0.0106655
        0.0326553 -2.19745 0.50261
        -0.446248 -2.01546 1.10869
        1.00582 -1.40217 -0.375102
        1.70883 -1.92896 -0.457696
        -1.47603 -1.41025 0.198969
        1.32342 -0.929984 0.138057
        -1.08487 -2.01979 0.406035
        -0.696589 -1.9362 0.655248
        -0.64651 -3.46148 -0.0843516
        -0.700566 -1.56337 0.540003
        0.166893 -1.24004 1.09926
        0.339562 0.699609 0.964176
        0.596227 -1.20186 0.551413
        1.08026 -0.588769 1.89831
        0.869206 -1.55006 0.464337
        -0.411417 -1.92466 1.17309
        0.291739 0.339075 0.263992
        -0.418776 -1.22868 -0.450986
        0.174876 -2.24009 0.996171
        -0.499577 -0.700297 0.561602
        -0.594736 -0.586094 -0.196689
        -0.496543 -2.56998 1.63602
        0.628249 -2.2372 0.835576
        0.609837 -1.22751 -0.548347
        -0.0956632 -0.8181 -0.366968
        -0.652012 -2.24196 -1.49624
        1.23521 -2.93387 -0.403404
        -0.755991 -2.79656 -0.221606
        0.34859 -1.77461 -0.191697
        0.372899 -0.968441 -0.776452
        0.52298 -2.12995 1.0906
        0.988152 -1.97096 0.368059
        0.230943 -1.33568 0.322097
        -0.867263 -2.07193 -0.130912
        -0.786694 -1.04507 0.169436
        -1.00993 -0.234382 -0.136707
        0.492375 0.117164 0.380659
        -0.700802 -0.47469 -0.00217512
        0.0750715 -1.20922 -0.179093
        0.357023 -0.315861 0.213323
        1.36107 -1.9573 -0.541893
        0.227278 -2.86503 0.300415
        0.644207 -1.17422 0.325385
        0.134775 -1.97944 1.53604
        -0.883392 -1.31657 1.0836
        0.054768 -1.08417 0.159552
        1.11853 -1.7297 1.47316
        -1.12036 -1.8804 0.222472
        -0.2465 -1.22387 -0.432334
        -0.969265 -2.30309 -0.128147
        -0.82987 -1.44368 -0.725509
        -0.103785 0.0551533 0.22545
        -1.00637 -1.8129 1.37638
        0.673924 -1.69871 -0.182919
        -1.06292 -0.757522 1.41805
        -0.730873 -0.125248 -2.12427
        1.36365 -1.042 -0.421087
        -0.466271 0.0842463 -0.0109592
        -1.52033 0.185076 -0.645383
        -0.603306 -1.83744 -0.381436
        -0.593743 0.0297831 -0.556468
        0.226743 -0.418217 -0.405948
        -1.28847 -1.38046 -0.186514
        -0.556559 -3.21343 0.51782
        0.380691 -1.71349 0.519675
        -0.281414 0.0320755 -0.707303
        -0.387182 -1.60197 1.48869
        -1.08418 -0.0727852 0.646121
        -0.325382 -0.0887808 -0.211976
        1.11224 -1.28731 1.13519
        0.571303 -1.24941 1.19427
        0.137885 -1.66623 -0.0926537
        -0.210268 -1.39575 -0.0440146
        0.433184 -0.208213 -0.219762
        -1.24466 -0.371174 -0.714367
        -0.0179014 -0.498652 -0.0317163
        -0.610344 -1.92957 -0.271224
        0.0700936 -0.941669 0.697568
        -1.83885 -1.78412 -0.453191
        -0.798721 -0.318254 1.68683
        -0.718312 -1.8489 0.238791
        -0.404854 -1.6242 0.807674
        0.205311 -1.32524 -0.109627
        1.87559 0.275852 -0.571541
        0.784758 -0.321771 -0.100399
        0.739513 0.517543 -1.46322
        -1.22534 -0.0492801 -0.422767
        0.604343 -0.0961013 0.420442
        0.987645 0.72633 -0.750608
        -0.744444 -0.190007 1.11229
        -0.810834 0.256469 -0.70191
        -0.283874 0.667819 0.224198
        0.786404 0.277947 0.223214
        -0.360387 1.26603 0.170483
        -0.380854 0.928534 0.221957
        -0.9019 0.385458 0.219568
        0.333103 1.34146 1.34772
        -0.590411 0.610919 0.210457
        -0.572032 0.1817 0.630812
        1.00424 0.764866 -0.0725687
        -0.828787 0.826184 -1.32496
        0.762574 1.0799 0.0738672
        1.55883 1.24626 0.199953
        0.538175 0.799209 1.73144
        0.0605935 1.79013 1.07622
        0.131246 1.09936 -0.904147
        -0.906587 0.48438 -0.323925
        0.29763 0.0856071 0.21841
        1.11248 1.57868 -0.359783
        -0.0622905 0.744877 -0.398633
        -0.470051 1.20214 0.314147
        -1.73888 1.43443 0.809641
        0.131769 1.27685 -0.349239
        0.74697 0.570949 0.587278
        -1.85008 2.50242 0.615089
        -0.11823 2.23079 1.25037
        0.130603 2.46643 -0.337063
        0.341148 0.918435 0.67809
        -0.770882 0.601668 -0.743014
        0.447955 0.151769 -1.11032
        -0.533526 1.17187 -0.210286
        -0.315833 0.978526 -0.508642
        -0.956457 1.65018 0.882907
        -1.07713 1.35597 -0.129451
        -0.763793 1.40618 -0.935122
        0.293966 0.496183 1.26543
        0.682918 0.736506 0.334788
        -0.786572 1.08871 0.19458
        0.105272 2.00121 -0.117565
        0.138905 1.56982 0.734919
        -0.0700362 1.03086 -0.0280634
        -1.13392 1.99454 0.819153
        -0.326972 1.103 0.984386
        -0.573808 1.27428 -0.12081
        0.814669 0.469779 -0.826714
        0.41339 0.632765 -1.17661
        -0.303054 1.39962 -0.842067
        -0.393506 0.788725 0.490896
        0.331525 1.54155 -0.412736
        -0.150069 1.88049 0.0379756
        -1.32083 1.21835 1.17353
        -0.337049 1.95161 0.239313
        1.50403 0.462319 -0.0352683
        0.118834 1.25288 -0.157697
        -0.750633 0.495077 0.747069
        -0.815863 1.08429 -0.114914
        -0.223218 0.490079 1.04188
        -0.870335 1.00476 -0.257084
        0.49675 0.782424 -1.42225
        -0.462498 1.45112 -0.0494587
        -0.68469 1.68384 0.0933988
        -0.085864 2.36312 0.46419
        -0.289456 1.49351 0.708294
        -1.30759 0.970276 -0.209907
        -0.149788 1.16111 0.123023
        0.699235 0.323305 0.325345
        -0.43023 2.10577 1.26258
        0.268128 2.42803 0.301557
        0.173706 2.1684 -0.208746
        -0.264778 0.421606 1.33636
        0.685033 2.1653 -0.190018
        0.285941 -0.336627 -0.191626
        -0.588142 1.93092 -0.542406
        1.90814 1.63497 0.995773
        -0.0775453 1.29788 -0.156474
        -0.253597 1.49007 1.00059
        -0.568652 0.724179 -0.979394
        -0.386473 0.948911 -0.60032
        0.376545 1.628 0.700468
        1.03178 1.93543 0.671552
        0.465907 0.450687 -0.436784
        1.63961 0.563143 -0.593821
        -1.17266 1.9535 -0.766527
        -1.2302 1.11566 -0.617247
        -0.550165 1.98338 -0.583112
        0.361838 1.88017 -0.553428
        -0.767537 1.61674 1.48704
        -0.0815931 1.82094 -1.05269
        0.629018 0.98208 -0.242747
        -1.49694 1.31251 -0.103412
        -0.749413 1.64394 0.269069
        -0.248572 0.422918 -0.299729
        0.620819 1.39696 0.0210481
        -0.859291 2.18879 -0.287655
        -0.0584074 0.632155 0.245648
        -0.737792 -0.560658 -0.448025
        0.118058 1.83083 0.517045
        0.0195373 1.52566 -0.325347
        -0.584225 0.49096 -0.612483
        -0.823434 1.10032 0.768569
        -0.61377 1.62254 0.148921
        0.42364 1.11968 0.235401
        -0.467898 0.45638 -0.197538
        -1.43165 0.227108 -0.0380876
        -0.816478 0.95613 -0.537672
        0.431106 1.62242 0.664682
        1.05311 2.13743 -0.0380874
        0.0594852 -0.65808 -1.09374
        -0.187894 1.38365 -0.0629095
        0.719493 0.7733 -0.20668
        -0.639733 0.768254 0.46564
        0.318601 0.878934 -0.137326
        -0.323041 0.93069 0.497728
        -0.581701 2.54457 -0.0879124
        -0.493999 1.75674 0.535338
        0.111253 1.01796 0.627237
        -0.941116 2.00322 -0.00792515
        1.48265 1.69692 0.268448
        -1.27709 2.23319 1.49674
        -0.23217 -0.147833 0.680038
        1.13195 1.58649 0.786075
        -1.76605 1.06872 -0.126958
        -0.490949 2.51302 0.152186
        -0.202761 -0.0285895 0.230235
        0.359827 1.37218 0.70099
        0.623971 2.33803 0.179793
        1.37092 1.22376 0.431073
        1.13432 1.07587 0.0483077
        -0.045191 1.05749 0.505989
        0.332121 -0.0604278 -0.054875
        0.190569 1.0008 -1.00546
        0.437334 0.776387 -0.252413
        -1.68293 1.99836 -0.25617
        1.12766 1.78703 0.0921063
        -0.170647 1.63476 -0.653874
        -0.0498988 1.52002 -0.611475
        0.636355 2.01026 -1.00758
        -0.388122 0.467569 0.134424
        -0.746473 1.31873 -0.143697
        0.614974 0.51206 -0.711441
        -1.57105 2.20021 -0.175263
        -0.418381 1.4472 -0.301501
        0.657321 2.27192 -1.63844
        0.760457 0.919541 -0.415324
        -0.864662 0.372476 -1.49022
        0.0681603 1.13338 -0.0193249
        -0.276335 1.17549 0.00369124
        -0.261496 0.535556 0.115581
        -0.553345 -0.188011 -0.280767
        0.584651 1.10221 -0.338528
        -0.404689 0.782968 -0.609948
        -0.749333 0.316828 -0.843314
        -0.132228 2.86226 0.441614
        0.323094 0.0453601 0.606894
        -0.934117 1.22999 -0.545535
        0.710067 2.18539 0.456389
        0.0721645 0.909285 -0.566772
        -1.58798 1.57787 -0.597657
        0.523391 0.376732 0.549705
        -1.09669 0.547389 0.480135
        1.91349 0.760066 -1.09722
        -0.96586 1.42399 -0.485379
        -0.731312 0.777373 -0.057973
        1.62248 2.23756 -1.1602
        1.12046 0.956326 -1.33906
        -0.400892 0.302423 0.320121
        0.866522 1.49605 -1.00287
        0.945865 1.86343 1.08089
        0.26109 1.87803 0.0468793
        1.07528 0.976259 1.08861
        -0.322092 0.811186 0.00470686
        0.0718347 0.982571 -0.260516
        1.31875 0.672515 -0.443989
        -0.0302755 1.32274 -0.601209
        -0.462291 1.90752 -0.906636
        -0.0827949 1.87944 -0.687794
        0.775563 2.21279 0.943866
        -1.43352 1.16227 0.0587823
        0.24897 1.53533 -0.197744
        1.12682 0.675294 0.207151
        1.04694 1.77604 -0.558535
        -1.545 1.29738 -0.535791
        -0.517074 0.888283 -1.03615
        -0.32197 1.12854 -0.718015
        0.785024 -0.993298 -0.985042
        0.120813 -1.36491 0.989193
        0.873762 -1.55839 -0.313173
        -0.55533 0.210747 -1.29968
        0.941021 -1.89204 0.0120383
        -0.76357 -0.950015 1.41338
        0.0494537 -0.780233 0.355251
        -0.759678 -1.62397 -0.0615536
        -0.655046 -0.973212 0.837741
        -0.368538 -1.89459 -1.09358
        -0.700781 0.139714 -0.223154
        -1.08067 -0.555951 -1.67836
        0.331504 -0.609758 -0.188373
        1.41237 -2.2252 0.422014
        -0.969004 -1.02474 0.429892
        0.372743 -1.84387 -0.368297
        -0.52792 -1.89785 0.0949876
        1.2246 -0.688982 1.0049
        0.82694 -2.42825 1.43164
        0.499058 -2.64054 -0.770093
        -0.0297556 -0.773271 0.657278
        0.279599 -1.86807 -0.848579
        0.334696 0.454196 1.07726
        -0.226413 -1.05907 -0.682864
        -1.79565 -1.80338 1.19162
        0.472433 -2.43992 0.341883
        -0.832441 -1.38809 1.23195
        0.146978 -1.83545 -0.806689
        1.72492 -1.5098 0.284843
        1.42724 -1.42278 -0.905302
        0.0386488 -2.55566 -1.78986
        -0.930035 -2.08176 -0.261445
        0.749133 -1.14184 -0.433659
        -0.29193 -0.929902 0.421748
        1.0515 -1.98 0.713154
        0.857582 -1.61034 0.129893
        0.830889 -0.492712 -0.270653
        -0.385214 -1.63075 0.543424
        0.263293 -0.963162 0.548221
        0.930539 -1.79984 -1.43083
        -0.692601 -2.30618 0.506881
        -0.297859 -0.475631 0.650997
        -0.0786003 -1.36698 1.40331
        0.743621 -0.223842 0.873148
        -0.236404 -1.81119 -1.7054
        0.646783 -1.59396 -0.0720684
        0.107823 -1.01467 -0.159726
        0.471892 -2.48918 0.545341
        -0.325034 -0.915551 -0.195433
        0.247361 -0.719165 -0.128614
        0.816027 -0.703194 -0.0428771
        -1.05121 0.743993 -1.37379
        0.558442 -0.117992 -0.183154
        -0.96297 -0.876197 0.0241037
        -0.659972 -1.90248 0.880179
        -0.563725 -1.12242 -0.809109
        0.521184 -1.54031 -0.732124
        1.41975 -0.694622 -0.820467
        -0.607971 -0.000731229 -0.699917
        0.0203863 -0.995025 0.330512
        -1.27093 -1.60967 0.667699
        0.0166318 -1.8262 0.865848
        0.271903 -0.892778 -0.625092
        -0.79056 -1.25828 0.32168
        1.32139 -1.24357 -0.690229
        0.502097 -1.03886 0.0616325
        -0.43188 -2.45737 -1.33487
        -1.14704 -1.92689 -0.581912
        0.683165 -1.35579 -1.55847
        0.284521 -1.01248 -0.663228
        -0.951497 -0.997643 -1.82327
        0.250179 -1.48835 -0.0336918
        -0.0531533 -1.4017 0.335839
        -0.387262 -1.16409 0.254042
        0.349322 -0.681135 0.644177
        -0.854484 -1.19157 0.395002
        -0.89596 -2.32107 0.374333
        -0.513719 -1.38852 -0.736977
        0.211313 -2.41002 -0.31642
        0.352044 -2.10465 -0.0664893
        1.00745 -1.76542 -0.547719
        -0.148434 -0.282522 -1.37164
        -0.37427 -0.0967501 0.415732
        0.0404908 -1.80236 0.129395
        -0.357562 -1.16393 0.769907
        1.15559 -0.945922 0.248495
        -0.478474 -1.40219 -1.44729
        0.248126 -0.668829 0.0205311
        0.426868 -0.654329 -0.465535
        0.322748 -2.90982 0.160672
        -0.28235 -2.577 -0.753593
        0.763823 -0.829621 0.152896
        1.36478 -2.16797 1.05917
        -0.361023 -1.33075 -1.07958
        0.174022 -1.43389 -0.913237
        -0.52212 -2.59079 -0.079812
        0.790914 -2.30866 -0.342738
        -0.211701 -0.57756 0.286895
        0.335734 -0.0615606 0.353657
        -0.64956 -0.566196 1.29944
        -0.732945 -1.48171 0.350769
        -1.71027 -1.7822 0.475493
        0.108451 -2.94522 -1.63113
        0.0636539 -1.2597 0.441327
        -0.235998 0.0454647 -0.42168
        -0.0351073 -0.173546 0.149475
        -1.0141 -2.43283 0.584911
        0.0311022 -0.660379 -0.827682
        -0.180049 -0.931053 -0.104432
        -0.735262 -0.851876 0.623813
        -0.222231 -2.25441 -0.66851
        -0.749089 -1.04919 -0.39536
        -0.623167 -1.96016 -0.0392389
        -0.038132 -1.06529 0.311809
        -0.892905 -0.554963 0.28407
        -1.24084 -1.18519 -0.300488
        -0.453858 -0.834785 -0.097812
        0.241376 -0.659278 -1.56476
        0.403181 0.0556274 0.991468
        -0.264692 -0.238682 -0.261903
        0.146018 -1.40176 0.270077
        0.317777 -1.40698 -0.873814
        0.180228 0.0861676 0.152216
        0.143463 -1.64093 0.35184
        0.279547 -1.71306 0.0368436
        -0.1466 -0.439602 0.621959
        0.0247377 -1.84086 0.467188
        1.44345 -0.488358 0.271491
        0.1084 -3.09166 -0.492933
        1.34761 -1.62637 0.844376
        -0.172994 -0.681678 0.148788
        0.57001 -1.05701 -0.34888
        -0.331837 -0.64302 0.479319
        0.754262 -2.02246 0.389755
        0.139978 -1.11569 -0.199307
        -0.80914 -1.03736 -0.00155311
        -1.73797 -2.71207 0.255069
        -0.0768154 -0.988565 -0.662964
        0.353321 -1.29932 0.17239
        1.11203 -0.649172 -1.78946
        0.34576 -0.754939 -0.803377
        -0.299852 -2.51801 0.126365
        -1.74838 -1.95704 1.05099
        0.0202921 -0.707976 -1.26171
        0.155421 -1.44773 -1.04451
        1.10312 -0.600739 -0.389943
        0.127837 -1.49754 -0.592027
        -1.25977 -2.27767 -1.03011
        1.03116 -1.52207 0.11412
        -0.0202396 -1.80472 0.789545
        1.0222 -0.728436 -0.312774
        -0.288857 -1.85442 -0.369392
        0.456767 -2.20056 -0.679942
        0.997425 -0.369917 0.511197
        -0.269962 -1.2187 0.974554
        -0.0656802 -1.24311 0.0521227
        0.625041 -1.01309 -1.1786
        0.282611 -1.56302 -0.703157
        0.551356 -1.39442 -0.49235
        -0.0265045 -0.627318 0.0417327
        0.106721 -1.29005 -0.54829
        0.347753 -1.03597 -0.226125
        2.00958 0.256187 0.203483
        0.536424 -0.361834 -0.277503
        -0.952024 -1.35578 -0.22678
        -0.525378 1.33002 0.209148
        -1.29698 -1.52722 -0.53708
        1.1215 -2.16367 0.555088
        -1.00313 -2.30897 0.22818
        -0.0982573 -1.22157 0.534726
        -0.98913 -0.95204 0.695124
        0.241996 -1.29912 -0.226912
        -1.08707 -1.74522 0.552993
        1.00791 -2.37804 -0.490399
        0.37121 -0.994648 -0.742182
        -0.396194 -1.14688 -0.597384
        0.105199 -1.04738 0.0456482
        -0.510403 -1.45898 -0.650112
        -0.553515 -1.78434 -1.31008
        -0.353762 -0.0402245 0.525775
        -0.568306 -0.989912 0.977898
        -1.81203 -1.91539 -0.167376
        -1.16797 -0.644644 0.380449
        -1.25452 -0.414962 0.706576
        -0.0471056 -0.964791 -1.81785
        -0.556331 -0.938889 1.60848
        -0.957801 -1.93479 -0.488215
        0.360231 -1.06939 -0.708085
        0.0233193 0.135302 -0.88852
        1.07741 -2.53856 0.972552
        -0.95881 -0.969435 1.77533
        -0.540457 -2.0669 -0.257283
        -0.0610346 -1.89482 0.0124788
        0.507986 -1.18357 0.0456756
        -0.845439 -0.653652 -0.410949
        -0.193416 -0.908791 0.0234216
        -0.0177446 -0.503494 -0.284693
        -0.199146 0.163464 1.51101
        1.46016 -1.73116 0.31137
        -1.27671 -1.70482 -0.706722
        -1.05817 -1.84831 0.95545
        -0.748337 0.590473 0.19126
        0.101876 -1.77376 0.190599
        0.0397441 0.492569 -1.03406
        -0.696161 -0.197322 0.164773
        0.26498 -0.298118 -0.313805
        0.66079 0.232548 -0.265455
        0.784615 0.039885 -0.0957905
        -0.195426 0.296466 0.186308
        0.4393 1.32755 0.740017
        0.824894 0.799388 0.0103474
        0.54744 0.830761 0.945835
        0.52783 0.077056 -0.124077
        -0.461481 0.604575 0.809211
        1.02252 -0.158289 0.0822065
        -0.374073 -0.352113 0.29508
        -0.628155 -0.0740185 1.06777
        -0.666182 1.12864 -0.195822
        0.291393 2.26311 0.807355
        -0.94822 0.36994 -0.619722
        0.621501 0.448677 1.02019
        0.813909 1.11375 0.946751
        0.0228326 1.4373 1.5099
        -0.14772 1.5815 -0.309451
        0.637146 1.08253 -0.498705
        0.452228 -0.416811 0.0761742
        0.436204 0.64631 1.43306
        1.18111 0.868879 -0.43033
        -0.403667 0.732825 -0.890359
        -1.05622 1.22224 -0.441383
        -0.95015 -0.115608 0.0963517
        -0.0295361 1.01617 -0.274549
        0.0183047 1.04 0.706228
        -0.939366 1.73772 0.46211
        -0.0851788 0.212221 0.11702
        -0.575394 1.48798 -0.282213
        0.300051 0.194259 1.1117
        0.404385 1.45896 0.158851
        0.216464 0.527234 0.144788
        -1.12777 1.20726 1.11582
        0.327719 0.63654 -0.349659
        -0.851321 0.87564 0.761307
        -0.160701 2.85462 0.125866
        0.117913 0.464762 -0.869456
        -0.0369235 2.12817 -0.730412
        -0.0252898 1.33573 -0.849693
        -0.28315 1.92151 0.602271
        0.533564 0.982271 -0.0945726
        -0.74642 2.01432 -0.438427
        -1.10804 1.82415 1.41318
        -0.627856 2.33515 1.32366
        -0.3306 0.818045 -0.133782
        -0.248998 1.16801 0.266353
        0.00113405 1.73549 -0.74166
        0.353133 1.96901 0.507869
        -1.27376 1.75912 -0.624302
        -0.782624 0.762072 0.179629
        0.121774 1.79251 -0.0413739
        -0.00352322 0.881042 0.29592
        0.835519 1.8554 0.849081
        -1.01114 2.60114 -0.810277
        0.322646 0.615922 -1.02238
        -0.137774 1.67107 0.821688
        -0.650944 1.77319 0.339581
        -0.635572 1.27201 0.216046
        1.20188 2.05095 0.21337
        1.04888 0.747087 0.304041
        -0.576213 1.30179 1.32557
        1.43099 0.583002 0.149792
        -0.726294 1.47302 0.711019
        -2.50704 0.910427 0.888529
        0.739958 1.00705 0.77493
        -0.819757 3.32802 0.802816
        0.0282409 2.70985 0.864729
        0.273365 2.12158 -0.0786177
        0.657665 1.17022 -0.512742
        -0.106133 1.74624 0.868386
        -2.02008 1.18988 -0.0817316
        -0.108179 1.31721 1.847
        0.256607 0.999762 0.529916
        0.56453 0.775535 0.931209
        0.171399 1.7955 1.91083
        -0.446073 2.268 -0.641941
        0.394192 1.50737 -1.64226
        0.324252 1.79773 1.05852
        -0.241443 1.92424 -0.127554
        -0.530754 2.30325 -0.284713
        -0.0886723 1.37725 -0.350176
        -0.129716 2.8389 -0.694836
        1.62903 0.050915 0.494296
        0.806177 1.57138 -0.452586
        -0.828117 1.07707 0.416861
        0.110555 2.04046 1.11704
        0.25577 2.80261 0.381123
        -0.383881 1.67481 0.071863
        -0.325099 0.62545 -0.217668
        -1.71566 0.305624 -0.395873
        0.363191 0.866454 0.960505
        -0.330222 0.904057 1.5708
        0.288302 0.29945 0.460673
        0.020843 0.458391 -0.461452
        1.75544 1.09469 -0.144041
        -1.88862 0.67579 0.0464104
        -0.581397 1.3254 0.670577
        0.290348 2.11988 0.0641031
        -0.223191 2.22611 0.304952
        1.35357 1.0587 0.14772
        0.692704 1.8611 -0.070697
        -0.49465 0.912571 -1.14822
        -0.752245 2.62185 -0.661015
        0.130703 1.97702 -0.669546
        0.385829 1.54994 0.877388
        0.188414 1.27964 0.709554
        0.331372 -0.0282302 0.314063
        -0.0990242 0.94011 -1.20469
        0.166489 0.404711 0.99459
        -0.426778 0.579649 -0.0316694
        1.2988 1.5776 0.227218
        0.82549 1.66154 0.257956
        -0.949902 0.160757 0.306503
        -0.362275 1.42692 -0.235132
        -0.684985 1.53024 0.231448
        -0.696769 1.57653 -0.472174
        0.265684 0.0548299 -0.108455
        -0.505778 0.45096 -0.626341
        0.960769 0.713275 -0.350019
        0.446271 1.78497 0.4049
        -0.67589 1.67389 -1.27183
        0.530226 1.77418 -0.248953
        1.56048 0.662916 1.25458
        -1.02916 1.14159 0.968924
        -0.829814 1.65441 1.32752
        -0.726498 1.03115 0.565602
        1.2753 0.930853 -0.223198
        -0.0655188 2.32985 -0.0356732
        -0.32551 2.87141 -0.868996
        0.582055 1.36362 0.793134
        -1.53547 0.770901 -0.199079
        -0.229158 1.84843 -1.58918
        0.0507145 1.10174 0.844141
        1.26385 2.02059 0.553138
        -0.522559 2.19814 0.905537
        0.734408 0.208946 -0.0287063
        -0.0992627 1.85486 0.682996
        0.539576 2.56473 -0.55535
        -0.843738 0.749969 0.00484287
        1.47275 2.15876 -0.329783
        0.292301 1.6188 -0.873749
        0.00571746 2.35721 -0.136022
        -0.883917 1.52491 0.404482
        0.553547 0.828931 0.262211
        0.200716 0.522323 -0.141007
        -0.0139486 1.48809 -0.373594
        -0.159012 1.52465 0.268173
        -0.841025 1.95106 0.876166
        -0.599665 0.638416 1.51526
        -0.531537 1.79238 -0.581231
        -0.452539 0.944966 -0.460536
        -0.21308 0.356125 0.277656
        0.0421118 1.55103 0.0292638
        0.223899 2.11643 0.122066
        -0.0115554 2.15633 0.664489
        -0.178959 1.37654 -0.293707
        0.567461 0.568402 0.187054
        -0.0480342 1.60779 -0.00183522
        -0.455401 0.683411 -0.246061
        0.195015 1.49768 -0.0567061
        -0.393202 1.06324 -0.191607
        -0.3336 -2.7382 -0.895163
        0.703314 -2.10769 0.157819
        0.279819 -0.867611 -0.605919
        -0.509208 -0.494204 1.04395
        1.32011 -0.795687 0.700271
        -0.775854 -1.79054 -0.357267
        -0.864574 -0.79199 -1.06954
        -0.10895 -2.88215 -0.87864
        -0.133708 -1.52357 -1.51353
        -0.22771 -0.590265 0.148651
        -1.40288 -2.3498 -0.405743
        0.836324 -1.20195 -1.03765
        -0.749148 -2.7652 0.240925
        -0.438238 -0.341569 0.565794
        0.113734 -1.53703 -0.024158
        0.208664 0.552889 -0.111518
        0.490409 -0.770908 0.778454
        0.677416 -1.29832 0.343658
        -1.33774 -1.9281 0.352101
        0.0252908 -2.87228 1.8547
        0.200713 -1.50139 -0.44601
        0.231462 -1.78016 -0.909246
        0.90789 -1.13409 0.795326
        0.332858 -2.07029 0.054138
        0.124564 0.138316 0.0298593
        0.925539 -1.04883 -0.546746
        -0.465471 -0.224477 0.0387496
        0.664484 -1.05255 0.0718975
        0.905824 -2.2138 -0.358451
        -0.405752 -0.727559 0.762828
        -0.67524 -1.73984 0.823387
        -1.57792 -1.05462 -1.06535
        0.0560829 -1.04643 -0.445122
        0.531468 -1.96348 0.956865
        -0.0633406 -1.45155 -0.527636
        0.710412 0.345022 -0.19042
        -0.271552 -0.707138 0.0410769
        0.0716288 -0.608074 0.456555
        0.21707 -0.356757 -1.68754
        0.832239 -2.26267 0.482492
        0.113306 -0.827153 -0.202122
        -0.0127556 -1.89486 -0.802428
        0.425581 -1.54915 1.01807
        0.472763 -1.55463 -0.0483959
        0.639993 -1.48585 -0.556556
        -0.126199 -0.0818076 0.167145
        -0.056297 -1.09001 0.334059
        -1.90194 -1.3022 0.0623608
        -0.0265418 -0.243463 -1.30463
        1.29386 -0.827709 -0.221152
        -0.975637 -1.06289 -0.447846
        -0.748893 -1.4247 -0.513625
        -0.670817 -2.41931 0.772213
        0.443611 -0.849585 0.0352239
        0.986789 -1.75163 0.191637
        0.344011 -1.59739 0.532795
        -1.30833 -0.39816 -0.432144
        -1.13288 -0.590326 -0.262904
        -0.401664 -2.04104 0.809693
        0.961944 -1.66888 -0.640251
        0.384049 -2.57377 -0.295926
        -0.731429 -1.60101 -0.181635
        0.839014 -1.15676 1.38029
        -0.870011 -1.24368 -0.136291
        0.818117 -1.15933 -0.303122
        -1.52425 -1.93567 0.494688
        0.946565 -1.00058 0.160703
        0.484617 -0.873371 -0.0704956
        0.601353 -2.34707 0.696789
        -0.0702855 -1.41846 -0.0293341
        -0.0390552 -2.73249 -0.0673773
        -0.483077 -0.0892181 -0.0678138
        -1.21009 -1.85779 0.158314
        0.388436 -0.382753 0.26508
        1.00715 -1.20553 -1.30109
        0.511473 -1.09786 -0.0862289
        0.383482 0.196159 -0.0646868
        0.25881 -1.22286 -0.114878
        -0.361272 -1.98579 -0.505529
        0.695507 -1.92672 -0.16867
        0.174749 -3.54568 -0.26732
        -0.270558 0.660326 0.515796
        -0.216793 -1.40353 -0.797736
        0.15222 -1.09426 0.534161
        -1.76853 -0.572809 0.0988569
        0.111941 -1.64618 0.305649
        -0.382516 -1.10951 0.246845
        -0.436224 -1.6025 0.225812
        -0.314735 -0.0189071 0.0821778
        0.652433 -1.63134 -0.0586059
        2.15927 -1.9401 -0.294009
        0.286136 -0.776715 -0.182483
        -0.416976 -0.441709 0.408391
        -1.36852 -0.555973 1.23688