<?xml version="1.0" encoding="UTF-8" standalone="no" ?>
<VTKFile byte_order="LittleEndian" type="UnstructuredGrid" version="0.1">
  <UnstructuredGrid>
    <Piece NumberOfCells="0" NumberOfPoints="1764">
      <PointData>
        <DataArray Name="velocities" NumberOfComponents="3" format="ascii" type="Float32">
        -0.960755 -1.01019 -1.21728
        -0.613653 -2.07659 -1.03674
        0.491501 -1.66137 -0.327664
        0.512263 -1.75013 1.45129
        0.666445 -1.38696 0.778416
        0.573738 -1.558 0.266766
        -0.886084 -1.79477 -0.045546
        1.72349 -1.1577 0.385109
        0.628801 -1.50707 0.646588
        0.310253 -2.14363 0.757031
        -0.208047 -1.72412 -0.0349494
        0.924046 -1.50303 -0.252668
        0.712871 -0.900973 -0.922477
        1.63983 -2.43916 -0.0880998
        -0.50855 -2.39548 -0.223879
        -0.0469036 -2.27273 -0.239013
        1.36643 -0.672456 0.561629
        0.00493085 -0.234323 -0.496564
        -0.455853 -0.277335 0.750291
        0.106116 -0.787671 -1.07882
        0.102939 -1.23429 -0.0215412
        -0.608996 -0.376265 -1.37027
        -0.179118 -1.59017 -1.30936
        -0.845909 -1.3967 -0.407435
        0.907769 -0.797515 -0.78541
        0.676597 -1.75186 -0.628898
        -0.778375 -2.35688 0.00941859
        -0.188308 0.27798 0.798706
        0.581557 -0.77114 -1.45735
        1.26872 -1.69225 -1.07283
        0.348335 -1.66857 0.305523
        0.116934 -0.740466 -0.143915
        -0.871658 -1.48593 -0.884666
        0.333403 -1.16775 -0.303707
        0.214619 -0.979972 1.41667
        -0.658665 0.174329 0.168761
        0.701989 -1.95754 0.354799
        -0.930301 -2.4275 -0.285912
        0.181948 -1.50465 -1.03819
        0.577851 -1.15164 0.111298
        0.444064 -0.092508 0.830581
        0.105799 -0.468305 0.11224
        -0.655291 -1.54801 0.629422
        -0.305336 -1.83749 1.01023
        -0.419385 -3.15597 0.375229
        -0.72516 -1.55593 0.351097
        -0.0567805 -1.79843 0.134456
        -0.49672 -1.21855 0.223571
        0.642178 -1.75699 -0.313585
        -0.880983 -1.20814 -0.480719
        0.157983 -0.923625 -0.265147
        0.416303 -1.56112 -1.27264
        0.530291 -1.62965 -0.786308
        -0.39092 -1.62817 0.779214
        0.0764059 -2.35875 -0.842124
        1.01279 0.477017 -0.38418
        -0.219442 -1.57957 -0.0365311
        0.990708 -1.07578 -0.086488
        0.0437146 -1.57396 0.231582
        0.388899 -2.22102 -0.0499355
        -0.972044 -1.71418 1.73369
        -0.557302 -1.51954 1.41776
        0.889271 -0.436329 -0.0005979
        -0.747663 -0.580243 -1.72727
        -0.910714 -1.16942 -0.159625
        -0.411057 -0.572167 0.153219
        1.36886 -1.42857 0.743369
        1.49817 -1.1715 -0.225675
        1.37516 -1.91527 -1.00803
        -1.03222 -2.6341 -0.288479
        -0.219534 -0.849909 -0.00205948
        -0.231497 -2.01152 0.694607
        0.638482 -2.39353 -0.17485
        0.613902 -2.05523 0.104014
        0.0985524 -1.43628 0.000351997
        0.728422 -1.05494 -0.579248
        -0.216035 -1.36274 0.220666
        0.787588 -1.71479 0.618985
        -0.101504 -2.06907 0.236931
        -0.313116 -1.60554 0.239313
        0.328546 -0.892563 0.686128
        0.470979 0.230445 -0.569991
        -0.082629 -1.77565 0.310869
        -0.479944 -0.0717925 0.60176
        0.886771 -1.84978 -0.968119
        -1.00562 -1.42349 0.260141
        -0.115446 -0.888149 0.387802
        0.795886 -0.825671 0.250974
        0.249606 0.473206 0.896241
        0.290032 -1.02855 -0.227351
        -1.24555 -1.76977 1.23544
        -1.23598 -1.82212 0.60664
        0.719875 -1.228 1.03799
        0.139189 -0.688174 -0.061859
        1.01921 -0.967352 0.962856
        -0.15088 -1.3317 0.0274554
        -0.815378 -1.43217 -0.493994
        0.844344 0.12415 0.167948
        0.0696714 -1.38374 0.353954
        -0.4882 -1.31534 0.804713
        0.712368 -3.00115 -0.283022
        -0.578849 -1.76975 1.15079
        -0.138449 -1.1344 -1.28752
        -0.595294 -1.02557 -0.982978
        -0.37462 -0.782547 -0.159037
        -0.346197 -0.785528 -0.434072
        -0.498716 -1.13247 -0.655681
        0.822723 -2.35229 0.246511
        -0.911067 0.427908 -0.206872
        0.505921 -0.866838 0.645232
        1.3467 -1.58238 -0.666284
        -0.197496 -0.545943 -0.446026
        0.541231 -1.69913 -0.512786
        -0.622951 -1.26881 0.946859
        0.323323 -2.43564 0.402401
        -0.614353 -1.35341 -0.959819
        1.977 -0.379311 0.664555
        0.0416171 -0.986726 1.25651
        1.0438 -2.20073 0.0368474
        -0.219179 -0.282254 -0.194664
        0.488777 -1.64415 0.465886
        -1.64089 -0.334006 -0.467261
        0.367557 -2.47607 -0.158748
        -0.819073 -1.69622 1.1571
        -0.988281 -0.773784 0.0959521
        0.589236 -0.0602224 -0.236047
        -1.11744 -0.75876 1.3298
        -0.304382 -0.201978 0.870736
        1.72774 -0.807665 1.19027
        0.883477 -2.71805 -0.992419
        0.594779 -1.59529 0.317816
        -0.364307 0.222399 -0.197749
        -0.335554 -0.873982 0.653541
        0.271335 -1.22704 2.01451
        -0.0715861 -0.877354 -0.978895
        0.124235 -0.233002 -0.106376
        -0.786321 -0.783426 1.25165
        -0.954871 -2.54079 0.711676
        0.302516 -2.11836 0.0421056
        0.333039 -1.1376 -0.895787
        -0.583352 -0.938672 1.31937
        0.421378 -2.96352 -0.750856
        -0.432251 0.642113 0.861666
        0.0656037 -1.44647 0.0144463
        -0.478594 -2.07922 0.692117
        -1.07338 -0.610164 -0.664974
        -0.122541 -1.86551 -0.769483
        -0.0844559 -1.29612 -0.39126
        -0.396392 -1.34245 -0.737962
        -0.525235 -0.826062 -1.23732
        0.347255 0.095084 -1.14757
        -1.23329 -0.86722 -1.03404
        -0.260925 -1.2801 0.262908
        -1.99962 -1.50605 -0.440705
        -0.326492 -1.69004 -0.229476
        0.122276 -0.150063 0.581243
        -0.964951 0.905093 0.0486096
        -0.503948 0.61606 -0.151837
        -0.835313 -0.392535 0.69341
        -1.34372 0.328267 -0.184401
        -0.0933902 -0.075863 -1.20898
        -0.746197 -1.90275 0.687554
        -0.567546 -0.362915 -1.02942
        0.0158685 -0.788592 0.736788
        -0.188786 -0.560535 -0.414051
        -0.686547 -0.361515 -0.908579
        -0.38596 0.0991233 0.523732
        -0.560084 -1.0251 -0.0774851
        -0.410501 0.164127 0.996738
        0.180538 -1.35345 0.490909
        1.10981 -1.47799 0.0475142
        0.979159 -1.88182 1.03874
        1.26924 -1.04718 -0.833635
        -0.883896 -0.393479 -0.189775
        -1.18608 -1.92287 0.18138
        -0.75336 -0.637305 -0.672068
        -0.804336 -0.908701 0.889177
        -2.08912 -1.25878 0.168635
        1.36088 0.473731 -1.47506
        0.142287 -0.0275959 1.5444
        -0.49181 -0.920036 2.2946
        -0.489421 -0.22705 0.25536
        0.27189 1.29707 1.22606
        -0.560058 0.0850822 -0.873104
        0.475775 -0.209836 0.858416
        0.403815 -0.144623 0.148521
        -0.440432 -0.670542 -1.04163
        -0.827264 -0.199184 0.689515
        0.067233 0.765481 -0.199514
        0.963699 -0.474679 -1.31874
        0.822598 0.567484 0.158921
        -1.35121 1.25361 1.18472
        0.033614 1.46523 -0.149127
        -0.809426 0.32476 0.0202523
        0.146207 0.667294 0.273309
        -0.119757 0.946516 0.492033
        -0.590375 1.02338 -0.0880717
        -0.446351 0.365676 0.708181
        1.29568 0.344352 0.106436
        -0.247705 1.82835 1.25977
        -0.866064 1.21715 -0.0712831
        -0.0762558 1.58205 -0.123454
        -0.448737 2.52735 0.085927
        0.187046 0.453428 -0.62361
        -0.236754 2.04242 0.936928
        0.435612 0.944896 0.599005
        -0.088572 1.61958 0.411863
        -0.987156 0.996057 -0.554165
        -0.653725 0.784486 0.269725
        0.557088 0.899852 -0.0251819
        0.230225 1.8926 0.422533
        0.580527 2.61811 0.252052
        1.22112 1.88158 -0.109177
        0.0343906 1.57607 -1.08422
        -0.00886264 0.206501 0.309686
        1.09819 2.1333 0.796812
        0.185361 1.34415 -0.0124582
        -0.478454 2.40042 0.403241
        -0.428262 1.70108 -0.00607907
        -0.114972 1.11227 0.169063
        0.341993 -0.0706439 0.481304
        -0.934801 1.72453 0.814178
        0.575371 1.6103 0.265457
        0.692951 1.70474 -0.183635
        -1.38977 0.418105 -0.946948
        0.57386 1.81819 -0.236728
        0.569527 1.34581 0.411281
        -0.119587 0.719879 0.453993
        -1.56203 2.76308 -0.217363
        0.487569 2.08664 0.66367
        -0.611089 2.19646 -0.549435
        -1.32594 2.96831 1.0596
        -0.000352654 0.89015 0.785537
        -1.76084 0.511867 -0.571111
        0.486119 1.72611 -0.330979
        -0.676018 1.03076 0.7302
        -0.0709444 1.08333 -0.0420134
        0.289952 0.894334 0.350533
        -0.542625 1.89385 -1.4012
        0.554367 1.47918 -0.552766
        -0.726095 0.460571 -0.0380012
        0.195155 2.44876 -1.53107
        0.326117 1.09836 0.0524629
        -0.311279 1.85188 0.14568
        -0.122406 1.83857 -0.227468
        -0.0899119 0.911236 -1.54499
        -0.0028886 0.534178 0.227129
        -0.373453 1.54323 0.715243
        -1.00523 1.9787 -0.172162
        0.123523 1.76959 0.0947573
        0.97834 1.58814 0.273624
        1.12997 3.10069 -0.175503
        0.260462 0.940658 0.0922488
        -0.342698 2.3761 0.0038684
        0.251322 2.3832 -0.354076
        0.299998 0.520934 0.248315
        0.488203 2.20185 -1.05162
        0.0463454 0.553221 0.375428
        -0.0713812 0.821918 -0.424785
        0.339115 0.525313 -0.41697
        0.284425 1.31123 0.287826
        0.408282 1.45423 -1.09069
        -0.526269 1.55496 0.836511
        -1.0892 1.6923 0.0655576
        0.381571 0.368946 -0.0495719
        -0.00944024 2.02594 -0.53637
        1.79225 1.18283 -1.64637
        0.363348 0.997076 -0.832004
        0.118713 0.774942 1.04901
        0.00796744 3.11938 -0.751957
        -0.486589 1.59563 -0.255616
        -0.157884 1.37082 0.252711
        -0.524944 -1.33728 0.18994
        0.420763 1.05526 0.0645918
        -0.461486 0.759856 0.423649
        -0.96532 2.13596 1.22223
        0.408157 1.29882 0.39176
        0.0167062 0.226868 -0.712035
        0.0360147 1.76006 0.70407
        -0.51846 1.11178 -0.0328852
        0.439333 1.15529 -0.935535
        -0.755766 1.68189 0.197215
        -0.548384 0.808936 -1.35857
        0.69585 0.53806 0.377328
        0.319155 1.33975 -1.46648
        0.783791 2.46915 0.671226
        1.14806 1.44968 -0.454942
        0.0843446 0.377469 1.82003
        -1.03364 2.59384 0.369692
        0.318702 0.549014 0.519965
        1.169 2.91554 0.509458
        0.638379 -0.0282153 -0.492281
        0.463839 1.01465 0.524227
        0.543296 1.70071 -0.15373
        -0.556808 1.23806 0.339098
        -0.509289 2.02233 0.775745
        1.12191 1.11672 -0.759574
        -0.420353 1.09255 0.478173
        0.587192 1.75328 -0.807563
        0.0338662 1.39118 0.855084
        -2.34172 1.82315 0.848578
        0.35316 0.632136 0.694915
        0.0272436 0.845114 0.572623
        0.290352 1.212 0.154539
        -0.943441 1.04059 0.29384
        -0.15629 -0.167327 0.72175
        -0.651972 1.63891 1.40301
        0.49843 2.15049 -0.288224
        -0.132678 2.15202 -0.558133
        -0.1839 0.797054 0.283702
        -0.00974806 0.485285 -0.0428543
        -0.530361 1.44352 0.300248
        -0.410236 1.54818 0.215565
        -0.312516 0.855323 0.820314
        -0.112535 0.362135 -0.533475
        0.201528 1.08313 -0.16068
        -0.36164 0.871412 0.19394
        -0.627148 1.01002 -0.529004
        -1.00042 1.74965 -0.164108
        -0.56789 1.82597 -0.44146
        -1.49685 1.86702 -1.43242
        -0.317771 2.19535 -0.487827
        -0.460389 1.14092 0.173836
        -0.55759 1.32681 -0.0277311
        -0.380624 2.1896 -0.0622628
        -0.741233 1.46704 -2.05793
        0.410358 1.48674 -0.0948802
        0.516962 -0.0489221 -1.26481
        -0.0645127 1.75121 0.467619
        1.06735 1.31848 0.337481
        -0.323441 0.666075 0.321941
        -0.643871 1.76026 -0.347857
        0.29671 1.32805 -1.07175
        1.39585 1.3635 -0.0872648
        -0.722637 0.111399 -0.527874
        -0.795364 1.29404 0.275811
        0.0171247 1.23551 -0.695748
        -0.727501 0.75447 0.0401963
        0.179317 2.53559 -0.0055129
        0.581666 2.00128 -1.24128
        -2.3732 0.970797 0.0302486
        1.00863 2.11358 0.346906
        -0.267136 2.75232 -0.711523
        0.356146 1.55743 -0.151252
        0.21862 1.21693 0.466058
        -0.50476 1.69194 0.848541
        0.529439 2.12468 0.941881
        -0.0618671 1.42794 0.115052
        0.189413 0.884716 0.363559
        0.0360728 2.41385 2.1552
        -0.465208 3.35746 -1.04467
        0.703735 1.60054 -0.175266
        0.576786 0.536823 -1.23848
        0.81078 2.09964 -1.42706
        0.38346 1.96109 0.141646
        -0.16678 0.0971119 0.297057
        0.496006 2.32327 -0.131462
        0.276292 2.60138 0.489421
        0.410656 1.97206 0.259638
        -0.393496 1.42916 -0.70561
        -0.369219 1.54278 -0.482583
        0.393497 1.27675 -1.37229
        0.0168305 -0.0553785 0.215169
        0.605805 1.28796 0.689622
        -0.695816 1.45568 0.267924
        -1.24432 0.998566 0.789389
        -0.119329 1.21995 -0.211221
        0.0508085 1.68965 0.940468
        -0.121419 1.45475 0.15778
        -1.00178 -0.445121 -0.210744
        -0.508891 1.88376 0.427927
        0.779163 1.32905 0.186616
        1.38756 1.32136 -0.560087
        0.19959 -1.31961 0.662128
        -1.3316 -1.27677 -0.366361
        -1.12747 0.67445 0.565228
        0.594822 -1.41079 0.354392
        -0.0423871 -1.41526 -0.10384
        -0.318316 -1.35161 0.486736
        -1.7473 -0.933683 1.36403
        0.636975 -0.903868 -0.890258
        -0.338594 -0.586411 -1.11315
        0.604539 -1.5973 -0.70519
        0.595368 -0.336174 0.0358466
        0.842352 -1.72606 -0.734181
        0.305096 -1.38966 -0.86672
        -0.392411 -1.45997 0.375301
        -0.348517 -2.92597 -1.02948
        -0.969908 -0.83531 0.0153344
        -0.113095 -1.0671 -1.18438
        0.657285 -2.51498 0.0499643
        -0.432482 -1.71888 -0.192186
        -0.140506 -1.10347 0.154274
        1.38393 -1.93015 0.855402
        0.0823956 -2.06193 -0.0143572
        -0.448335 -1.12594 0.71151
        1.40108 -0.454867 0.328008
        0.55536 -1.63144 -0.645077
        -0.938093 -1.32294 -0.143011
        0.895721 -1.42073 -0.308273
        -0.0782588 -1.82615 -0.704222
        -0.288712 -0.718517 -1.07741
        0.0856388 -0.302629 -0.250897
        -0.889075 -0.831049 -0.830201
        0.725522 -1.4344 0.118828
        0.791655 -2.09527 -0.169713
        0.723201 -1.55587 -0.336686
        0.038628 -0.758835 0.525276
        -0.190472 -0.670136 -0.544589
        0.55572 -1.33182 -0.273816
        -2.04047 -1.32976 0.210475
        0.0235116 -2.30575 -0.274859
        -0.300092 -0.418179 0.224809
        0.133172 -1.90795 0.872597
        0.0923315 -1.73071 0.950473
        -0.15194 -1.61262 -0.370348
        -0.160237 -1.58133 -0.473096
        -0.42343 -0.592951 -0.496169
        -0.340242 -1.715 -0.829424
        -0.604169 -1.27167 0.133819
        -1.19274 -0.907135 0.094929
        1.6745 -0.870029 0.498115
        0.0983946 -0.588385 -0.469051
        0.963736 -1.33687 -0.0656544
        0.0744382 -2.23512 0.307124
        -0.726207 -2.59715 -0.547325
        -0.27662 -2.34671 -1.18784
        0.371774 -0.277889 0.0396751
        -0.448553 -1.31627 -0.339229
        1.23815 -1.83122 -0.396263
        0.823765 -0.516083 0.566228
        0.143262 -0.473114 -0.479559
        -0.18271 -2.14921 -0.638117
        0.0913903 -1.2795 -0.315649
        -1.08227 -0.642237 0.86155
        0.525769 -1.80524 0.103488
        0.58661 -0.884792 -0.202538
        0.615406 -0.0365139 0.275854
        -2.44383 -1.51689 1.21468
        0.699995 -0.700451 0.319067
        -0.526488 -1.87652 -1.12626
        -0.282295 -3.18597 -0.651924
        0.460875 -1.24874 -0.962368
        0.506715 -1.00955 -0.267728
        -0.193261 -0.0176721 0.327251
        1.53983 -0.275207 -0.547614
        0.614595 -1.62115 -0.464351
        -0.0061002 -1.37778 -0.142102
        -0.20986 -0.367306 0.776383
        0.936688 -2.27867 -1.52846
        0.0025855 -2.65952 0.12438
        0.00833985 -2.60103 1.47741
        -0.775226 -1.70644 2.03761
        -0.165326 -0.724135 -0.103314
        0.0558278 -0.894678 -0.390581
        1.75518 -1.7171 -0.968845
        0.0914066 -1.14369 -2.03221
        -0.441527 -2.2616 1.144
        -0.370818 -0.908192 -0.17712
        0.482354 -0.936566 -0.821421
        0.746677 -1.09583 1.24231
        -0.175942 -1.12793 0.397839
        0.903065 -0.817011 0.100307
        0.406532 -0.467734 -0.00161328
        0.932585 0.201702 -0.733609
        -0.900926 -1.33049 0.430224
        -0.137856 -1.18448 -1.32082
        0.446951 -1.06595 -0.0561126
        -0.560622 -1.28928 -0.209063
        -0.962156 -2.13558 -0.258478
        0.210881 -0.706085 0.518394
        -0.382267 -2.55996 -0.293539
        -0.707926 -1.35776 0.19638
        -0.885486 -2.37883 0.416524
        -0.585101 -2.15737 -0.471147
        -0.0734973 -0.945922 0.277928
        0.788995 -0.0182922 0.153741
        0.611557 -1.49058 -1.16946
        -0.300188 -0.892165 0.0210875
        -1.08331 -1.8266 0.145039
        -0.718316 -1.03943 0.465175
        0.297974 -2.39992 -0.706689
        -0.562414 -0.389035 0.0005239
        0.688309 -2.5094 0.387141
        0.228416 -0.39154 -0.401124
        0.883107 -0.00981518 0.546281
        -0.916295 -1.64773 -1.06514
        0.598031 -0.344758 0.92444
        -0.631964 -0.597655 0.579975
        0.525272 -2.28593 -0.11924
        -0.690375 -1.55278 -0.341432
        -0.115448 -1.02232 -0.657797
        0.0209216 -0.0677712 -1.10723
        -0.645211 -1.03118 0.518653
        0.327869 -0.724786 1.20898
        0.351875 -2.82143 -0.648123
        -1.18927 -1.3208 0.406341
        0.0114573 -0.947758 -0.616073
        0.940774 -1.674 1.06226
        -0.785029 -1.03583 1.09054
        -1.27369 -1.08966 -0.813243
        0.691189 -0.198258 -0.640676
        0.251859 -1.20303 -0.889365
        -0.215998 -0.0966512 -0.622449
        -0.725483 -0.976157 0.859145
        -0.330446 -2.02921 -0.538241
        -0.303203 -2.11382 1.04088
        -0.626608 -2.83375 1.16787
        -0.149771 -0.806553 -1.32365
        -1.14442 -1.53118 1.04292
        -0.655249 0.397948 -0.872032
        0.437276 -0.24884 -0.0779217
        1.08236 -1.67341 0.242773
        0.202309 -1.4477 1.39336
        0.0050375 0.769376 -0.382228
        1.75893 0.268747 -1.93462
        -0.373377 -0.575527 1.0774
        -0.283543 1.19064 0.702158
        0.854475 -0.966507 -2.42902
        -0.759635 -1.79585 1.04768
        -2.02273 -0.513333 0.0876453
        -0.317613 -2.13923 -0.152957
        0.389597 -0.914475 -0.261565
        1.15352 -0.851022 0.441085
        0.510803 -1.56358 -0.145676
        0.0452163 -2.15232 -0.205255
        0.396013 -1.79809 0.878171
        -0.0689346 -2.7271 -0.560601
        1.19396 -0.928876 0.149065
        0.793334 -1.19826 0.271818
        1.00134 -1.02057 0.807172
        1.33393 -3.53562 1.30733
        1.40782 -1.8273 -0.663462
        -0.181288 -1.67179 0.00655418
        0.393955 -1.87527 0.592678
        -0.812767 -1.58876 -0.243562
        0.758468 -0.917553 -0.162791
        -0.939994 -1.29458 -0.937461
        -0.146422 -1.97855 -0.62062
        0.368375 -1.38574 -0.659782
        -0.55416 -0.463246 -0.550938
        -0.072889 -2.27649 -0.26513
        0.0958499 -1.36566 -1.52569
        -0.653877 -1.16978 -1.35606
        -0.546735 -0.730224 -0.00147483
        0.713195 -1.89939 0.182916
        0.574486 -1.15231 -1.1139
        -0.320037 -2.29411 -0.121763
        -0.728456 -1.635 -0.848023
        0.263523 -0.717527 0.0644144
        0.128966 -1.00027 0.97919
        -0.310834 -0.83776 0.959808
        -0.162381 0.115484 0.434162
        -0.294913 -1.84973 1.93691
        0.240895 -0.739301 1.57865
        -0.982102 -1.10912 0.0613227
        0.436122 -1.54806 1.626
        0.156255 -0.452626 -1.17334
        -0.172337 -0.47409 -0.625162
        -0.0470418 -0.794522 0.182958
        1.23816 -2.09911 0.140262
        -0.634612 -0.348634 1.03324
        -1.12505 -1.42546 -0.271969
        -1.24546 -1.07284 -1.46107
        1.78732 -1.65311 -0.976578
        -0.239876 -1.18575 -0.344
        0.23568 0.588207 -2.05651
        -1.19389 -2.19006 0.318242
        1.67959 -0.12322 -0.114448
        -1.24091 -0.906498 1.17356
        -0.0787283 -0.104962 -1.07872
        -0.474993 -0.154402 -0.243759
        0.606283 0.159157 -0.361928
        0.82246 -0.605166 0.139066
        0.137609 0.457661 1.22268
        0.0850667 -1.48567 0.591778
        0.242672 0.909715 -0.176525
        0.824196 1.30724 -0.323363
        -0.373307 1.02267 0.149497
        0.489692 0.557693 0.021256
        -0.0140936 -0.120475 -0.495965
        0.568133 0.23424 0.373418
        -0.0332372 0.729592 -0.453879
        1.25505 1.34207 0.437345
        -0.13883 0.329745 -0.424297
        0.480898 0.622425 1.23183
        1.35119 0.244339 0.615452
        -1.10284 0.864829 0.841829
        -0.523479 0.102574 1.45384
        0.136579 0.464155 -0.84322
        -0.437372 -0.187627 0.461857
        0.437967 0.809273 0.438884
        0.623527 0.617486 0.386417
        1.18753 1.47899 0.324331
        -0.50968 0.643208 1.02564
        0.324724 -0.536243 -0.342667
        0.210112 1.76128 1.59859
        -0.185487 0.942472 0.0179954
        0.201179 1.20623 0.675664
        0.00108669 0.774683 0.637468
        0.561215 -0.493781 -0.0593135
        0.885461 0.305554 0.0108506
        -0.488338 1.54062 -0.254817
        -0.130939 2.1381 0.567335
        0.444672 1.42961 -0.556566
        -0.0678702 1.21693 0.544464
        -0.34859 2.3719 -0.492993
        -0.453745 2.75559 0.222571
        -0.728511 1.62131 -0.470884
        -1.56099 1.93028 -0.770568
        -0.090095 1.83725 1.16768
        0.547656 1.46848 0.928125
        0.270006 2.0692 0.0974512
        -0.201862 1.27792 0.301342
        -1.5378 1.66346 -0.324923
        -0.577111 1.9606 -0.614967
        1.6712 0.653351 -0.970157
        0.0621366 1.15566 0.838592
        -1.13359 1.28979 -0.272178
        0.870441 1.92278 -1.24687
        -0.386853 1.4258 0.0145996
        -0.0939486 2.08174 -0.241448
        -0.832148 0.940004 -0.0388664
        0.0695259 0.997032 -0.26007
        0.389122 1.40134 0.707764
        1.11479 1.46529 0.256605
        0.00814496 1.27426 0.458096
        -0.782537 0.292584 1.15873
        -0.112959 -0.0458178 -0.996681
        0.204429 -0.0876102 -1.15634
        0.568746 2.25899 -0.275183
        -0.569651 0.740371 0.893879
        0.157469 2.33484 -0.11241
        0.11176 1.30825 -0.674736
        0.126398 0.517068 2.39455
        -1.64447 1.15946 0.575677
        -0.908022 0.76518 -0.686776
        0.977936 0.260655 -0.0648449
        -0.250219 0.584563 0.0634005
        -0.381647 1.49749 1.53157
        0.4934 0.978952 -0.809419
        0.28122 1.73731 0.559804
        0.0137649 1.38555 -0.000541962
        -0.72051 1.86814 -0.477035
        -0.952868 0.384835 -0.0703248
        -0.324535 1.46684 -0.314607
        0.372975 1.17759 0.114925
        -0.959442 2.06578 0.225599
        0.900338 1.64902 -0.0143158
        0.179971 2.3028 0.554027
        0.579295 1.3116 0.328127
        0.0759008 1.13276 -0.886723
        0.263938 1.5185 0.00712164
        1.25577 1.3555 -0.200751
        -0.333129 1.30477 -1.31881
        -0.94647 0.702746 0.248881
        -0.4382 1.80441 0.00717683
        -0.287606 1.52863 0.609547
        -0.0405768 0.52725 -1.02669
        0.0962879 0.518278 0.276378
        -0.744843 2.06074 0.194022
        0.341043 1.25398 -0.629511
        -0.361464 1.31705 -0.113511
        -0.80887 1.1457 0.318415
        0.840819 1.38976 0.17024
        -1.43862 1.37274 -0.0375066
        0.309222 0.492249 -0.358705
        -0.0168325 1.19589 0.245687
        0.652521 1.9487 1.15692
        -0.107716 1.61409 -0.983239
        -0.367437 1.61245 0.403036
        -0.171115 1.80437 -1.12302
        0.41352 1.24892 -0.421599
        -1.01069 1.46108 -0.963334
        0.988233 0.0388933 0.740706
        0.661117 2.50624 -1.05771
        -0.962868 1.95026 1.03221
        -0.288671 2.14804 0.0283463
        -0.432791 2.01995 0.511825
        0.529323 2.02225 0.248861
        -0.0630179 1.9965 -0.999767
        0.267892 0.608453 -1.77367
        0.0921814 1.83874 1.00173
        -1.14486 1.74696 0.0688576
        0.883263 0.774106 -0.828425
        -0.343879 1.06017 -1.03679
        0.728924 0.896727 0.480572
        0.722236 1.1502 0.458565
        0.571815 2.10805 -0.139003
        -0.333869 1.93513 -0.426576
        -0.568049 -0.477588 0.144789
        -0.47884 0.784958 1.52964
        0.765254 2.17604 1.35926
        0.541758 1.73759 -0.0311893
        -0.919071 0.295254 -0.991305
        0.311004 1.94314 -0.0293863
        0.630411 1.40005 -0.223221
        -0.620374 0.589218 -1.19066
        -0.828212 2.23586 1.19441
        0.221825 1.33646 0.231823
        -0.271617 0.852081 0.712826
        -0.887318 0.517126 -0.917223
        -0.457854 1.55254 -0.142731
        1.38134 1.92326 0.471904
        -1.28865 2.39003 0.174203
        0.832375 0.650891 -0.0297487
        -1.46096 2.9394 0.171416
        -0.0319199 0.156177 -0.00513092
        0.543596 0.0202536 -0.781822
        0.89433 1.04066 -1.39437
        0.681703 1.65389 0.521943
        -0.0642617 2.25672 -0.623901
        -0.211824 2.67889 1.28687
        0.0633682 0.489659 0.80106
        -1.30303 1.87454 -0.0703435
        -0.0613491 0.875019 -0.614377
        0.995252 2.05542 0.366681
        -1.29014 0.776008 0.496842
        -0.46355 0.846901 0.155218
        0.152177 -0.263947 0.974337
        -1.68534 1.61188 -0.436297
        -0.702247 1.39041 -0.185052
        -1.73002 1.84181 -0.303037
        0.525203 2.98659 -0.36848
        0.718751 -0.256862 -0.204831
        -0.50318 1.62692 0.137808
        0.323072 1.76935 -0.522448
        -0.33416 0.43473 1.93429
        -0.302738 0.510157 0.150421
        0.593117 1.30727 -0.0756177
        -1.04865 1.76507 0.306877
        0.449929 0.681248 -0.307214
        0.100746 2.03763 0.0893514
        0.667456 -0.307521 0.0659033
        -0.530494 -0.737003 0.116231
        -0.51538 -0.583661 -0.0344166
        -1.26534 -2.15109 0.858488
        0.367219 -0.793913 -0.291233
        1.39523 -2.48642 -0.456787
        -0.0849806 -1.26107 -0.34579
        -0.179665 -0.973089 -0.645053
        0.203232 -0.771594 0.594476
        -0.933892 -0.341995 -0.639547
        0.449513 -0.723154 0.419087
        0.280919 -1.32863 -1.30759
        -0.721934 -0.652377 0.486143
        -0.102524 -1.24734 -0.636683
        -0.203055 -1.32887 -0.138051
        0.124933 -0.745971 0.80095
        -0.265763 -0.410469 -0.0226829
        1.08339 -0.370476 0.337738
        -0.257041 -1.49943 0.304126
        -0.175488 -2.21902 0.90076
        0.639066 -0.724127 0.155269
        -0.501166 -1.48179 -1.13282
        -0.354969 -0.335647 0.262195
        -0.0343631 -0.284424 -0.210686
        1.34832 -1.18336 0.204276
        0.476449 -1.24042 0.99627
        0.531675 -1.13868 -0.451536
        0.631088 -0.389632 -0.645276
        -0.994182 -1.74761 0.386477
        0.274153 -2.04794 0.900558
        0.881746 -0.437055 -0.148912
        -0.433918 -1.54693 0.841355
        0.39538 -0.464816 0.673387
        0.500588 -1.30751 -0.994705
        0.336636 -1.20418 -0.233994
        0.87322 -0.544486 0.124814
        0.4438 -2.29961 -0.210605
        0.224138 -1.30775 0.291031
        -0.407375 -0.0593891 -0.0218414
        -0.965116 -1.74594 0.208027
        -0.835068 -2.18143 -0.500511
        0.107771 -2.14353 -0.3931
        0.496865 -2.0031 -0.251273
        -0.772484 -1.3058 0.332043
        0.0659489 -1.38834 -0.211119
        0.789555 -1.96675 -1.37724
        0.702674 -1.94536 -0.964022
        0.672371 -1.2618 -0.585303
        0.348521 -2.37197 0.492839
        -0.849005 -1.3837 -0.621998
        0.721974 0.174713 -0.732037
        0.111901 -1.54574 0.302457
        -0.191862 -0.723972 0.658869
        -1.27254 -1.84157 0.242011
        -0.983664 -1.53314 -0.129112
        -0.657 -0.0598911 0.106797
        -0.315525 -1.61642 -0.946503
        0.604893 -1.19232 0.588926
        0.440356 -0.668734 -0.13309
        -0.199619 -0.716622 -0.309911
        0.467253 -1.56906 -0.381498
        0.232695 -1.86488 -0.655531
        -0.896038 -0.835576 0.241364
        -0.360644 0.0771859 -0.175203
        -0.0900812 -1.34298 -0.442057
        0.907256 -0.909659 1.52466
        -1.01522 -1.0333 -0.704395
        -1.13326 0.0119929 1.91016
        0.607446 -0.346791 0.131056
        0.574866 -0.976509 -0.179929
        -0.656225 -1.98881 0.0155278
        0.130934 -2.06842 0.336605
        0.480508 -1.33135 -0.0304046
        0.739172 -2.06094 1.24235
        0.94564 -1.93936 -0.415948
        0.0652595 0.70989 0.607248
        0.297487 -1.08862 0.836508
        0.0496274 -0.801089 -0.471038
        1.22694 -0.317477 1.23584
        -0.363079 -3.44175 0.479338
        0.844468 -1.66276 0.158341
        0.0274044 -1.2844 -0.421098
        -0.686993 -0.854036 -0.850364
        0.394438 -1.80999 -0.0327689
        -0.0199008 -1.18018 -0.534623
        1.49634 -2.27853 0.938778
        0.955139 -1.64289 -0.371088
        -1.81827 -2.40066 -0.0197242
        0.00849335 -0.906471 -0.117969
        1.17373 -2.79807 -0.637584
        0.844264 -3.70166 0.557441
        0.00492299 -0.459348 -0.382707
        0.248546 -1.95752 -0.999884
        0.117033 -1.75154 1.46179
        -0.652683 -1.99855 -0.612841
        0.0180276 -0.622097 0.480703
        -0.505943 -1.25822 -1.14791
        1.01067 -1.51267 -0.863401
        0.759531 -1.33595 0.657562
        -0.67007 -1.215 0.000697015