<?xml version="1.0" encoding="UTF-8" standalone="no" ?>
<VTKFile byte_order="LittleEndian" type="UnstructuredGrid" version="0.1">
  <UnstructuredGrid>
    <Piece NumberOfCells="0" NumberOfPoints="1764">
      <PointData>
        <DataArray Name="velocities" NumberOfComponents="3" format="ascii" type="Float32">
        0.535774 -1.71202 0.0186801
        -0.760432 -0.638731 -0.777828
        0.0706789 -1.25507 -0.725721
        -0.834183 -1.9081 -1.70891
        -0.915309 -1.26804 -0.854002
        -0.310051 -1.54043 0.105322
        0.681097 -1.17325 -0.426961
        -2.05235 -2.12304 -0.277244
        0.905613 -2.18749 -0.0528541
        0.25054 -1.41923 0.308434
        -0.723867 -0.105181 -1.51711
        0.748571 -2.2846 2.14208
        -1.43382 -1.14277 0.311684
        0.327235 -0.0181576 0.291378
        -0.0999959 -1.76824 -0.969039
        -0.286711 -2.1997 0.0269072
        0.276278 -0.478804 0.909941
        0.441312 -1.1063 -0.838851
        1.04043 -0.832824 0.979399
        -0.99597 -1.45861 -0.528988
        0.0783551 -0.746298 0.957546
        0.502658 -1.81971 1.16417
        0.845431 -0.399394 0.0742522
        0.167424 -0.662905 0.714314
        0.801669 0.0235493 0.192445
        -0.350604 -1.74514 0.362826
        1.41396 -2.08952 -1.11941
        0.443522 0.124293 0.0767652
        0.0262833 -2.51929 -0.177619
        0.744648 -2.10933 0.192943
        -1.07166 -1.65817 -0.132195
        -0.678421 -1.43232 0.527344
        0.670129 -0.847443 -0.147326
        -0.0801527 -0.516837 -0.889119
        0.997676 -1.33384 -0.779638
        0.123746 -2.0193 0.260537
        -0.786163 -1.50695 1.08094
        0.727612 -1.34668 1.53137
        1.22306 -2.6324 0.578476
        -0.958749 0.0976752 0.146333
        0.414518 -0.329335 1.10474
        0.689364 -0.788922 -0.143718
        0.616429 -1.83626 0.0969878
        -0.37292 -1.18919 -0.113352
        -0.0596256 -1.40812 0.324081
        0.220648 -1.14856 0.277929
        -0.126142 -1.29714 1.8074
        0.0777272 -1.38174 0.994925
        0.057968 -2.028 0.374709
        -0.0693088 -1.51687 -1.00819
        -0.420899 -1.44858 -1.29847
        -1.28891 -0.246485 1.01597
        2.44096 -0.401128 -0.00238899
        -0.873886 -2.18123 1.21326
        1.62703 0.282566 0.595246
        -0.278548 -1.40353 -0.14725
        0.166737 -1.13923 -0.746969
        -1.12435 -0.821279 0.713103
        1.03688 -2.51982 -0.692372
        0.732936 -2.24479 0.350181
        0.861719 -1.9443 -0.83107
        -0.068553 -1.1485 0.0892136
        0.422572 0.0118507 -0.121376
        0.0149461 -2.35385 -0.842603
        0.10279 -0.813457 -0.735166
        1.17947 -0.93022 -0.875919
        -0.359285 -1.8444 0.891382
        0.0372446 -1.27039 0.346369
        -0.266922 -1.10125 -0.641958
        0.185343 -0.982759 -0.495033
        0.616405 -0.461921 0.415328
        -0.00266132 -2.455 -0.230217
        0.23641 -1.18798 0.396524
        0.558216 -1.47809 0.605727
        1.26624 -1.49975 0.393898
        -0.378301 -1.98112 1.45713
        -0.00759975 -1.79493 0.828208
        1.08685 -1.14914 0.946097
        0.451644 -1.24075 0.212972
        -0.0134683 -0.51967 0.924229
        0.268631 -1.46488 -0.992323
        -0.370891 -1.9201 0.859069
        0.0602222 -1.59597 -0.77383
        0.190216 -2.21352 0.356956
        0.0366546 -0.881732 -0.390536
        -0.722717 0.130746 0.796797
        -1.47878 -1.35732 -0.188569
        0.186279 -0.640786 -0.16529
        -0.901898 -1.18184 0.222427
        0.315611 -0.572639 -1.0611
        -0.440856 -0.644942 -0.914545
        0.158465 -0.843482 -0.059571
        0.448457 0.537105 -0.2234
        -0.919771 -1.05275 0.247335
        -0.125716 -1.20275 -0.295887
        0.561642 -0.82227 -1.01396
        0.288765 -2.20921 -0.89445
        -0.716631 -0.614759 0.422732
        -0.0833972 -0.559128 -0.121741
        -1.33709 -0.83913 -0.268014
        -0.951711 0.65565 -0.289174
        -0.783251 -0.97383 -1.34079
        0.698811 -1.08279 -0.870789
        1.48247 -2.78209 0.70925
        0.300873 -1.47486 0.767855
        1.03934 -1.30782 -1.11087
        0.75438 -1.72088 0.433433
        -0.335205 -1.69636 -0.324431
        -0.0687299 -2.26907 0.941808
        1.03593 -1.98515 0.984547
        0.24659 -0.910685 0.436528
        0.401746 -1.35276 0.500243
        0.34919 -1.61527 -0.42247
        -1.24421 -1.58942 0.225182
        -0.665209 -2.67671 1.26054
        1.95559 0.306307 -0.383921
        -1.45618 -0.957594 -1.93034
        0.315923 -0.268739 1.5982
        0.103032 -1.19792 0.486062
        0.474988 -1.46159 0.292113
        0.26365 -0.798708 1.04766
        0.595329 -1.72628 0.0119297
        -0.670602 -1.03706 -1.17716
        0.742101 -2.25449 -1.77723
        -0.269947 -1.39318 -0.169544
        -0.587307 -2.24583 -0.72714
        0.187878 -1.80869 -0.0515443
        1.02998 -1.23811 -0.384632
        0.54675 -1.76593 0.215588
        -1.08052 -1.23889 0.137506
        0.0207323 -1.63121 0.221294
        -0.161436 -2.35622 0.0373002
        -0.961163 -0.789131 -0.696749
        -0.64977 -0.151475 -1.29737
        1.26433 -0.862338 -0.280138
        0.571517 -0.587524 -0.222027
        0.730513 -1.04377 0.745657
        1.07303 -0.277276 -0.462492
        0.301893 -2.31157 -0.318544
        -0.66377 -1.28205 -0.291188
        0.356977 -1.49282 1.10252
        -0.855007 -0.611963 -0.0245633
        -0.799605 -0.469018 -1.47256
        -0.781949 -2.3791 0.829194
        0.178538 -0.709265 0.186124
        -0.61071 -0.738436 0.0151225
        -0.636206 -1.73207 0.694397
        1.36036 1.27283 0.740927
        0.606634 -1.08846 -0.336779
        -0.414968 -0.917073 -0.765169
        0.120423 -0.375256 0.0954287
        0.776415 -0.486427 0.302962
        -0.554875 -2.5979 0.308296
        -0.397511 -1.45842 -1.46059
        1.0741 -1.48397 0.144233
        0.819629 0.212711 0.277548
        0.706744 -2.45543 0.480082
        -0.345978 -2.25031 0.96854
        0.931038 -1.00704 0.408352
        0.69131 -1.55996 0.291943
        0.2286 -1.64751 0.571319
        0.594183 -1.1031 -1.32111
        0.284585 0.304195 -0.149697
        -1.79999 -0.841108 -0.261133
        0.505603 -0.113623 -0.38333
        0.626023 -0.153389 0.561829
        -0.4906 -1.15627 -0.0184814
        0.0440017 -2.08618 -0.154409
        -0.860769 0.266556 -0.481176
        -1.56722 -1.76567 -0.383779
        -0.15821 -1.74155 0.385769
        0.25281 -1.53148 -1.64144
        0.079022 -1.29626 -0.195348
        -0.878453 -0.525382 0.120369
        -1.32753 -0.175767 -0.500807
        -1.73123 -0.828535 0.64585
        -0.579692 -0.435938 0.10632
        -0.763702 0.0592624 0.325895
        -1.12986 0.102057 0.66957
        -0.360673 -1.01908 -0.289148
        0.770466 -2.44566 0.254635
        -0.374601 -0.162089 0.885547
        -0.400282 -0.834755 0.718453
        0.592605 -0.764511 -0.290737
        -0.846819 -3.10726 1.30776
        0.00904146 -1.97655 -1.28228
        -1.11464 -1.39848 0.900956
        -1.0541 0.258153 1.29604
        -0.689988 0.0724389 -0.666202
        0.242917 -0.429094 -0.0516324
        0.784757 -0.321771 -0.100401
        -0.49072 -0.300165 0.762167
        -0.826286 0.788286 -0.0511979
        1.19931 -0.646443 0.746633
        0.696365 1.43454 1.48458
        0.991651 0.108998 -0.428044
        -0.0613889 1.11001 0.698934
        1.08504 -0.486949 0.265036
        -0.2858 1.72265 0.530278
        0.809157 -0.536223 -0.0207505
        0.249617 0.608864 -0.0557116
        0.0578812 0.272121 -0.563294
        0.935684 0.555022 1.355
        -0.156494 -0.0451544 0.578751
        -0.739354 1.09088 -0.276953
        1.54578 0.877319 -0.856775
        1.26891 1.86255 -0.154574
        -0.687254 -0.210748 1.03779
        0.647919 0.274249 -0.394888
        0.891999 1.11257 0.437437
        1.34963 1.22538 -0.439845
        -0.419176 0.869981 0.0767641
        1.26802 2.24576 -0.331269
        -1.07884 0.360579 0.817872
        -0.775398 1.26119 1.27293
        0.246327 1.05522 -0.575136
        0.981463 0.345639 0.108404
        0.779423 2.0506 -1.42554
        0.526768 1.12632 0.532672
        -0.5949 2.26205 -1.87207
        1.10432 0.914206 0.896728
        -1.71386 1.51011 0.610244
        0.642819 0.935957 -0.779043
        -0.35503 0.697579 -0.420824
        -1.32731 0.627488 0.0903926
        0.349393 0.95376 0.207779
        0.812357 1.37329 -0.243547
        -0.66494 1.83762 0.306146
        -0.221151 0.0531672 -0.193335
        -0.248164 1.4955 1.02153
        0.347065 0.706371 0.310796
        -0.316498 1.30771 -0.353524
        -0.141427 1.4428 -0.743225
        0.462827 1.79565 -0.567195
        -0.385601 0.183834 -0.988392
        1.4286 1.20622 -1.00749
        0.379673 0.819921 -1.74512
        -1.15527 1.39326 0.574542
        -0.732817 0.729062 0.00923859
        -1.13764 3.09557 -0.284891
        0.278601 0.544847 -0.314986
        0.973438 0.64248 0.670897
        -1.42698 1.70618 -0.538582
        -0.899667 1.31289 -0.026228
        -0.440003 1.54997 0.816129
        -0.120936 1.78399 -0.0187077
        0.696982 1.7795 -1.13479
        0.17945 1.52493 -0.276599
        -0.443258 0.281473 0.313688
        0.431855 0.384355 0.810605
        0.425952 1.70195 -1.35625
        -0.00856797 1.08791 -0.787055
        -0.207072 1.82316 0.252546
        -0.328169 1.14899 0.283506
        -1.04667 2.30569 -0.102672
        -0.67595 0.993425 -0.293579
        0.300776 1.09341 0.0296244
        -0.355664 0.835994 -0.263994
        0.33878 1.20189 -0.748659
        0.245047 1.09347 -0.645756
        -1.01299 2.04776 0.524788
        0.919002 2.00522 1.43938
        0.0058302 2.58442 -0.2682
        -1.62107 3.19205 0.576789
        0.187861 1.59724 -0.215364
        -0.286939 1.37775 0.0502074
        -0.374021 1.96184 -0.190446
        -0.95332 0.901171 0.074416
        -0.817537 1.2 -1.67638
        0.986128 0.602618 -0.0138294
        0.1547 1.98985 1.2568
        0.072925 1.77255 1.01411
        0.288733 1.8709 1.61973
        -0.318704 2.05221 -0.682241
        -0.410491 1.54078 0.19589
        -0.817504 0.71741 -0.521263
        0.73884 1.03656 -0.120978
        0.740474 1.91879 -0.234537
        0.17479 1.57575 0.810171
        -0.736597 1.45759 0.176892
        -1.63207 2.28561 0.657245
        -0.223569 1.75032 0.183899
        0.93593 1.23086 -0.58231
        -0.099556 1.7734 0.449121
        -0.27177 1.24146 -0.411739
        -0.166556 1.38183 0.127965
        1.12568 0.857315 -0.722314
        0.307808 1.51034 -1.29927
        0.281604 0.737328 -0.455593
        -0.907393 0.653486 -0.0470381
        0.308508 1.2422 -0.214054
        0.534256 0.584433 -0.952884
        -0.813231 0.395001 -0.403968
        1.03388 1.67435 0.0287775
        -1.10552 1.73804 0.973359
        -0.017848 0.821389 0.193014
        -0.644583 2.17247 0.515061
        0.454242 0.965377 1.02348
        0.324959 1.47784 1.01808
        -0.936584 1.34605 -0.357455
        0.279986 1.61053 0.501733
        0.0956455 2.15587 0.770438
        -0.538102 1.76653 1.46481
        -0.42122 0.923914 0.383964
        -1.29851 1.16983 1.35762
        -0.500952 1.32151 -0.214269
        -0.79585 0.796757 -1.79818
        0.157433 1.71614 -0.592622
        -0.897691 1.86475 0.129138
        0.970617 0.18908 0.189843
        -0.135629 1.87845 0.424315
        0.805911 -0.183898 -0.0430622
        -0.567532 0.757712 -1.14559
        -1.09088 1.423 0.0211496
        0.239167 1.90756 0.492462
        -0.332782 1.56224 -0.192716
        -0.741562 0.44012 -0.529963
        -1.0973 1.70044 -0.236602
        0.738609 2.68994 -0.701138
        -0.719978 1.98876 -0.143834
        -0.851694 0.389434 -0.38867
        -0.663376 0.622183 -0.724316
        1.0346 0.0736517 0.383694
        0.0485005 1.84161 -0.216305
        -0.0436705 -0.165114 0.0102913
        -0.169358 0.592406 -0.118848
        -0.536817 0.817734 -0.911358
        1.12009 3.31336 0.843957
        -2.08372 1.53126 1.26367
        0.821154 1.47171 -0.0451396
        -0.178935 0.949803 -1.41288
        1.66152 1.22498 -0.633669
        -0.546866 1.61356 -0.00511068
        -0.820187 1.40707 -0.0152007
        -0.294586 1.73434 0.579439
        -1.04864 0.736019 -0.585518
        -0.6815 1.13422 0.161631
        -0.0171257 0.0269146 -0.0313725
        -0.0799814 1.89936 -1.55209
        0.985684 0.719849 1.95065
        1.15137 0.292042 -0.0362073
        0.295126 1.74098 0.812213
        -0.89321 1.43087 0.75713
        -0.0244 0.619369 -0.995107
        0.108664 0.622378 0.152569
        0.216072 1.10095 -0.723539
        -0.00621688 1.31307 0.0331125
        0.745398 0.579491 0.335026
        -0.514981 1.46229 0.71178
        -0.153963 0.218241 -0.386317
        0.563603 -0.1911 -0.0941125
        -0.928324 1.10035 -0.186121
        -0.124599 -0.623267 -0.815004
        0.29644 1.28111 -0.756854
        0.510479 1.75807 1.51508
        0.501674 0.370615 -0.513533
        -0.0973096 1.01825 -1.55164
        0.407535 1.23632 -1.24079
        1.28992 1.67828 0.388958
        -1.18912 1.12411 0.70352
        -0.0833166 0.642166 -0.470352
        -1.4269 -0.323133 1.06452
        0.962428 2.32261 -1.35582
        -0.0208829 3.0099 -0.973114
        0.258276 2.60377 -0.316412
        0.227581 -0.767174 0.683977
        0.432295 -1.04881 0.180702
        0.104814 -0.829594 0.81465
        -0.878658 -0.748745 0.109097
        -0.0667146 -0.735077 0.379289
        0.668091 -1.40556 -0.336584
        0.983866 -2.95524 -1.05168
        0.535099 -1.26924 0.636788
        -0.412425 -2.52852 0.761723
        -0.943692 0.0861905 0.188027
        -0.106281 -0.986732 0.615392
        0.000733768 0.0245864 -0.180963
        -0.352646 -1.44517 0.492948
        0.0190998 -3.33849 0.621813
        0.424316 -2.44007 -0.677006
        -0.127461 -1.17896 0.31627
        0.559948 -1.81356 -0.230637
        0.582879 -1.54924 -0.485212
        -0.30116 -0.0107226 0.174148
        0.681815 -1.40643 -0.729068
        -1.02032 -1.12345 0.28023
        1.4603 -0.890652 -0.336185
        -0.0483051 -1.66354 0.256452
        -0.00605645 -2.11497 1.76291
        0.0138189 -0.557407 0.999427
        -0.177698 -2.95441 0.657131
        -1.09126 -2.04967 0.466275
        -0.860022 -0.963404 1.27818
        0.0919945 -0.989878 -0.0975331
        -1.46277 -1.87911 0.39508
        0.662704 -0.85336 -0.0272317
        0.41177 -1.64183 -0.400171
        0.935645 -0.00137346 -0.170617
        0.175492 0.0172034 0.585416
        0.435591 -1.43268 -0.643912
        0.0850323 -0.562117 0.048492
        -0.199777 -0.844142 0.0273268
        -0.286686 -0.466226 -0.0225333
        0.447381 -0.555733 -0.254434
        0.415727 -0.715296 0.488028
        0.104547 -1.22323 0.922633
        -0.0895872 -1.72927 -1.25462
        -0.893123 -0.262512 -0.146831
        0.271798 -0.412754 0.245507
        1.16119 -1.60654 -0.958068
        -0.381681 -2.55572 -0.754909
        0.847909 -2.3385 0.452155
        1.63345 -1.09224 -1.07354
        -0.000248236 -1.74999 0.615227
        -0.295005 -1.25503 0.271373
        -1.57532 -1.41042 1.32519
        0.635549 -1.17516 -0.781845
        -1.02083 -0.894682 0.220859
        0.440452 -1.60603 -1.27813
        0.359503 -1.36697 0.602907
        0.151659 -0.708852 -1.60218
        -0.893648 -0.410485 -0.605782
        0.0347357 -1.17439 0.0892245
        -0.356825 -1.83219 1.01777
        -0.514656 -0.292608 -1.27515
        0.672938 -1.78966 -1.12327
        -1.733 -1.32282 1.10325
        -0.268345 -1.59799 -0.989847
        -1.10427 -1.86507 0.0343839
        -0.589633 -0.57974 -1.09861
        0.87323 -2.00039 -0.520762
        -0.480296 -1.49307 0.188667
        1.85857 -2.93282 1.65844
        0.565857 0.177546 -0.923272
        -0.0882825 -1.78365 0.392451
        -1.19593 -0.359462 -0.176929
        -0.18005 -0.804945 0.342672
        -0.530979 0.170907 0.51836
        0.713054 -0.981771 -1.06104
        -1.22554 -2.07986 -0.181514
        -1.42985 -1.23504 0.0133615
        1.20152 -0.343104 0.0356281
        -0.222634 -1.11846 0.442309
        0.419203 -0.913826 -0.751621
        -0.0131899 -1.09416 1.4051
        0.110722 -2.58972 -0.368011
        -0.0223985 -1.61571 -0.966339
        -0.0907482 -1.59969 0.765195
        -0.0747261 -1.8726 0.3498
        0.853116 -0.263633 0.994569
        0.234448 -1.06967 -1.0772
        1.65387 -1.93891 0.505842
        -0.494905 -1.95743 -0.702599
        -0.407166 -0.247201 0.170755
        0.964196 -0.839553 -0.419992
        -0.0169548 -2.52026 -0.952258
        0.122359 -0.946654 -0.185972
        0.186126 -0.816211 -0.808763
        -0.335025 -0.556994 -0.306588
        1.29124 -2.37253 0.758667
        -0.0891451 -2.46578 0.409724
        -0.165456 -0.931722 0.982044
        1.04567 -1.68029 -0.612992
        0.767571 -2.24666 -1.34543
        0.165766 -0.488615 -0.697214
        -0.33537 -1.02276 0.770577
        0.607542 -0.398909 0.494232
        0.0709719 -1.61052 -0.334461
        1.22757 -1.54573 -1.15067
        -1.30891 -2.09344 -0.639362
        0.197559 -2.36964 -0.762079
        -1.07967 -1.55931 -0.493836
        0.0652246 -0.658128 0.342153
        -1.12892 -1.32345 -0.47176
        0.838172 -2.36576 -1.28644
        -0.283135 -0.924067 0.874005
        1.45076 -1.13663 -1.84587
        0.592613 -2.25793 -0.648991
        0.50895 -1.67602 -1.15316
        -0.374435 -1.29742 1.55772
        -0.45819 -0.0313739 -0.615164
        1.40576 -1.10338 -0.999895
        0.37812 -2.20713 -1.022
        0.373018 -2.37835 0.146604
        -0.217168 -0.493715 1.17513
        1.2041 -1.5417 -0.145095
        0.974621 -2.77474 0.259807
        1.78747 -0.954998 0.752986
        0.466211 -1.82098 -0.246556
        -0.283798 -1.69693 -2.71004
        1.04982 -0.137415 0.413403
        0.348114 -2.24722 0.576464
        1.65717 -0.0956452 1.29121
        0.478652 -1.73471 -0.550812
        -0.263332 -0.386007 -0.739192
        -1.27376 -2.0668 0.0842563
        -0.788678 -0.93153 -1.30863
        -0.213418 0.11558 0.205716
        0.0891231 -1.68782 -1.07474
        -0.0190965 -2.48085 -0.279086
        -0.295221 -1.78182 -0.106606
        0.185689 -1.65276 1.20724
        0.639099 -1.90257 -0.132963
        -1.73356 -0.235474 0.182653
        1.29234 -1.43105 0.937944
        -0.065654 -1.87873 0.230816
        0.376092 -2.37354 0.17115
        0.522035 -1.90657 -0.596368
        0.0138284 -0.915764 -0.000563394
        0.640648 -0.830365 0.399651
        0.691965 -1.94115 -0.282479
        1.0313 -1.21023 -0.44752
        -0.543887 -2.06344 -0.445219
        0.727517 -0.68633 -0.719647
        0.797613 -0.170738 0.566916
        -0.504168 -1.04305 -0.679316
        -1.40245 0.0561599 -0.104582
        -0.834077 -0.619836 -1.07204
        0.879265 -0.571292 0.300522
        0.0828246 -0.705306 -1.04256
        -0.0685415 -0.55887 -0.783946
        -0.358234 -1.80094 1.33288
        -0.129751 -0.207009 0.381224
        -1.15688 -1.8551 0.612987
        -0.849685 -2.10818 1.08436
        -0.065899 -1.59237 -1.37016
        0.392888 -1.69555 -0.837296
        0.183066 -1.43104 0.130057
        1.05193 -1.22101 -0.646868
        -1.08984 -1.08435 0.0587385
        0.312673 -1.29298 0.0522052
        0.0283041 -0.726825 -0.585634
        -0.656585 -0.505963 -1.0353
        0.192831 -0.954543 -1.07203
        -0.250096 -1.68606 -1.45455
        0.0386942 -1.68674 -1.26006
        0.319262 0.272532 -0.440909
        0.355835 -1.41655 -0.597922
        -0.684462 -1.35488 -0.841601
        -0.0963836 -0.628292 1.25509
        -0.174603 -0.483651 0.545919
        -0.0411497 -2.44727 0.763701
        -0.329592 -0.876242 1.23654
        1.0307 -1.1752 1.32855
        -0.919684 -2.14789 -0.621705
        -2.81351 -1.85114 0.197173
        -0.873103 -0.98777 0.0539317
        -0.545195 -2.10279 -0.0868058
        0.268644 -1.44777 0.576284
        0.400911 -1.30044 -0.418287
        -0.820167 -1.38329 -0.689293
        -0.0134542 -1.1327 0.222982
        -0.848575 -0.427088 0.520801
        0.665448 -1.02399 1.12423
        0.454916 -0.370146 1.00316
        1.87531 0.274436 -0.574851
        -0.392337 1.27532 -0.285832
        1.13944 0.523626 -1.04713
        -0.251944 1.71553 -0.405067
        0.634157 0.471374 0.49064
        0.560975 1.07345 0.95826
        0.121242 0.338206 0.728122
        0.977863 0.0474175 -0.0548441
        -1.6495 1.27269 -0.249029
        -0.799685 -0.760539 -0.959218
        -0.188843 -1.09271 0.167221
        -0.442262 1.03218 0.147851
        0.585273 0.0225275 -1.58018
        0.40143 -0.860443 0.237465
        0.46774 0.989831 -0.663154
        0.056571 0.0754257 0.328715
        0.455132 1.57481 -0.20334
        -0.0890543 0.582854 0.780818
        -0.518524 0.384258 0.0323949
        0.357552 -0.0754559 -0.878536
        -0.135767 -0.14861 -1.05752
        -1.14336 1.09147 0.0950147
        -1.23869 -0.239992 1.04995
        0.679204 1.52178 -0.972544
        0.302964 2.26917 0.96532
        1.08724 1.11403 0.365177
        0.575665 0.946806 -0.414558
        -0.77097 2.78154 -0.496121
        -0.400684 1.12 0.502395
        -0.253242 1.76564 -0.266902
        0.322488 0.740622 0.462573
        0.544154 1.21064 0.00380068
        0.779596 0.881867 1.40229
        -0.556964 1.11119 1.17725
        0.0177927 1.35357 1.53057
        -0.908112 0.883949 0.179661
        0.520584 0.367465 -0.773293
        -0.137697 0.908091 0.381785
        0.344414 1.25186 -0.665269
        -0.260679 0.704345 1.3093
        -0.317484 1.17065 -0.45106
        1.03569 -0.0666749 0.0497385
        -0.0654929 1.79009 -0.0330113
        0.240311 2.51912 -0.264047
        1.16084 1.86339 0.0391493
        -0.232451 0.371269 -1.22699
        -1.03164 1.31303 -0.268465
        0.338381 1.34698 0.132815
        -0.538774 0.83698 0.0203858
        -1.83735 0.751809 0.486523
        0.241107 1.29146 0.5037
        -0.207763 2.03098 -0.554698
        1.2249 1.41109 0.290992
        -0.521132 2.23685 1.11237
        0.757734 1.2796 0.0333765
        -1.52918 3.1942 0.337075
        0.948692 0.0783818 0.0935077
        0.20269 1.50211 0.121395
        1.07277 2.53801 -0.0843221
        -0.155734 1.17422 0.222306
        0.0964144 1.32044 -0.580489
        0.284264 2.25869 1.15534
        0.918469 1.51282 -1.3141
        0.403277 1.40378 -0.771393
        -0.690862 1.23919 -0.82778
        0.448015 0.129203 -0.667103
        0.142326 -0.22828 0.0512802
        -0.173328 0.485896 0.0393971
        0.431363 1.23874 -1.17492
        -1.93343 1.8574 0.232703
        0.765008 0.668499 0.691479
        1.8098 2.15924 -0.12452
        -0.908178 1.47234 -0.996516
        0.786528 1.67338 -0.167835
        -0.0702145 2.33306 0.382244
        -1.4443 1.71088 1.11814
        1.28035 0.294736 1.13841
        0.273398 0.924496 0.772902
        -0.100204 1.57127 -0.524222
        -1.16823 2.65756 0.0338147
        -1.49277 2.05537 -0.43001
        -0.277103 0.84047 2.06203
        0.717268 1.98464 0.839658
        -0.69532 1.60284 0.750826
        0.161055 0.328438 0.177332
        0.664955 1.69396 -0.45151
        0.162909 2.2342 1.66678
        -0.436001 0.636833 0.96091
        0.584608 0.880111 0.866681
        0.679604 0.529758 -0.058184
        0.029347 1.87538 0.201234
        0.27348 2.04918 -0.662964
        -0.935006 2.15943 -0.315445
        0.195199 1.5572 0.449641
        -0.273389 1.25359 0.156518
        0.848788 0.896957 -0.791084
        -0.157584 1.29151 -0.0659511
        -0.611219 0.978945 1.08872
        0.0652675 0.971098 0.504709
        -0.881906 0.477928 -0.199728
        0.563204 1.50883 1.02832
        -0.104631 1.87039 -0.140557
        0.343175 1.91362 0.269798
        0.418431 1.51708 0.341664
        -0.0266066 1.64855 0.0964983
        -1.2773 1.6869 0.592847
        -0.155381 0.561673 1.07321
        -0.863071 1.90182 0.329309
        0.103778 1.16948 -0.494129
        -0.671829 0.543258 0.205611
        -0.313036 1.08025 -0.291681
        -1.0558 1.72863 0.296542
        -0.207157 0.262888 0.715964
        -0.0921384 0.688897 1.80413
        -0.0788051 -0.166618 -0.130853
        0.855878 0.324553 0.354829
        0.542538 0.438862 1.2067
        -1.35719 1.8994 -0.0111311
        -0.902863 1.91987 -0.53993
        -0.59559 1.26129 -0.906099
        0.497562 1.33397 -0.540444
        -0.0589129 0.902976 -0.452696
        -0.186537 1.72305 0.358676
        -0.564311 1.22871 0.791628
        -0.518038 2.39242 -0.386754
        -0.952108 0.80009 0.256873
        -1.05882 0.0782522 0.251707
        -0.0472413 2.26914 -2.1498
        0.477619 0.223937 -0.717617
        1.11461 1.27493 -0.815756
        0.71615 1.47703 0.884837
        -0.394259 2.71199 1.06053
        -0.586385 1.23744 0.547677
        -1.53506 1.90103 -0.481681
        0.144045 1.48964 0.945274
        0.601343 2.99913 0.671841
        -0.113114 2.68168 0.165647
        0.452716 1.90035 -2.05588
        -0.833395 1.41165 -0.00726911
        -0.844254 1.14762 -0.644231
        0.268809 1.21995 0.16136
        0.0869885 2.09825 0.297202
        0.187387 -0.0714421 0.321064
        0.426853 0.881466 0.526297
        1.30619 0.926123 -0.406075
        -0.219697 0.283732 0.846716
        0.335609 2.43089 -2.16613
        0.0867089 0.633396 -1.08809
        -0.553985 1.21002 -0.639727
        0.632524 1.43197 0.728023
        1.32036 0.949768 -0.930425
        0.789522 1.28995 -0.0662859
        0.0909438 1.21582 -0.890563
        0.671208 1.56822 0.542804
        0.168542 1.02828 0.580164
        -0.910378 1.37968 -1.79418
        -0.473601 0.691523 0.745267
        0.437576 1.97077 -0.531895
        -0.0122685 2.88171 1.16605
        -0.0508635 1.65947 -0.319769
        -0.150154 2.20903 0.978017
        0.588991 0.506221 1.19812
        1.09648 0.608669 0.1534
        -0.705949 1.18918 0.588394
        -0.383354 0.563039 -0.832611
        0.0619723 1.00899 0.109825
        0.522529 1.91702 -0.174952
        -1.64261 2.26223 -1.19388
        0.115928 0.959011 0.34198
        -0.340903 1.80514 0.144822
        -1.27219 0.760264 0.891565
        0.597937 1.46035 0.745497
        -0.802844 0.763531 0.884903
        0.0588167 0.280614 0.22369
        -0.356448 2.68837 1.46456
        -0.485637 2.48853 0.270568
        1.15706 0.16874 0.652711
        -0.379311 1.38586 1.1014
        1.3432 2.56048 -0.55889
        -0.109544 1.25529 0.930299
        0.990394 1.56607 0.10125
        0.136343 0.329031 -0.25518
        0.072001 1.99904 0.058898
        0.0267666 1.24593 -0.577785
        -0.947956 -0.682675 -0.565947
        1.24057 -1.84186 1.18686
        -0.399065 -0.644375 0.175501
        -0.739351 -2.11855 -0.436897
        0.7525 -2.64941 -0.15105
        -0.813587 -0.634947 0.033364
        -0.79339 -0.481563 0.453723
        -0.13668 -1.14291 0.479059
        0.871381 -1.63674 0.213978
        -0.137781 -2.01034 -1.07193
        -0.307028 0.115257 0.249305
        -0.346267 -0.196701 0.0249176
        0.394412 -0.0917853 0.317779
        0.670888 -1.61589 0.353658
        0.913131 -0.785368 -0.977944
        -0.697931 -1.84684 0.0489024
        -0.690934 -0.628442 0.302974
        0.859271 -2.34806 0.389104
        -0.118235 -1.25675 -0.454502
        0.0668422 -1.33977 0.711566
        0.458977 -1.40064 -0.498417
        0.0912872 -1.81028 -0.0754312
        0.00698331 -2.15005 0.683399
        0.246367 -2.40798 0.18603
        -0.252892 -2.01289 0.569412
        0.395403 -2.08205 0.742491
        0.261414 -1.56912 -0.387306
        -0.493476 -0.693922 0.151432
        -0.0328593 -0.809753 1.06986
        0.575179 -1.70654 -0.337491
        -0.26088 -1.43777 -1.14121
        -0.426777 -1.44915 -0.0375907
        -0.194089 -0.989449 0.119239
        0.129942 -0.138384 0.788895
        -0.543598 -1.51737 -0.186224
        -0.162482 -1.5609 -0.376566
        0.131343 -1.21752 -0.326827
        1.32362 -1.06199 0.120356
        -0.322291 -1.61061 0.631494
        0.381937 -1.28358 -0.485977
        0.639874 -2.18452 -0.622497
        0.738684 -1.72912 0.075584
        -0.766911 -0.963162 0.18325
        -0.0142992 -0.824468 0.372169
        0.590188 -2.4269 -0.694739
        -0.0819866 -1.38725 0.00327108
        -0.783348 -1.48307 -0.698668
        0.515504 -2.2916 -0.236824
        -1.17058 -1.32521 -0.458679
        -0.411828 -0.830192 0.728573
        -0.509394 -2.43547 0.287072
        0.273678 -0.937505 0.198872
        1.10129 -0.750417 -0.745154
        -0.713478 -0.525765 0.71193
        0.0804288 -0.679725 -0.706395
        -0.552224 -0.331136 0.310755
        -1.81399 -2.29239 0.815334
        0.781676 -1.68266 -0.954295
        -1.07818 -1.43903 -0.226811
        0.316052 -1.77968 -0.07958
        0.848393 -1.66678 0.926394
        0.458459 0.176126 -0.91282
        -1.11529 -0.64971 0.0607622
        -0.10087 -1.96217 -0.766959
        -0.924665 -0.620414 1.60556
        0.688074 -0.534943 0.894325
        1.02811 -2.27856 0.0661457
        0.383919 -0.913673 -1.46015
        0.082607 -1.74831 -0.309969
        0.407017 -1.99839 -1.15437
        -0.152526 -1.78001 0.39765
        -0.486764 -1.16798 0.115375
        0.562484 -1.08007 0.767711
        0.152492 -0.820773 -0.524694
        0.0188418 -1.43996 0.359658
        -1.25846 -1.57767 -0.11773
        0.262299 -1.58677 -0.905181
        -0.0928212 -3.18249 -0.0641173
        1.25848 -1.24266 -0.0631019
        -0.659302 -0.762068 -0.620449
        1.41991 -1.75529 1.04116
        -0.847151 -1.56713 0.095441
        0.213362 -1.35463 -0.248327
        -0.996499 -2.33484 0.176698
        0.558033 -0.453984 0.252055
        -0.233813 -0.710824 0.0421435
        0.0903357 -0.790339 0.199617
        0.749768 -2.24954 -0.204668
        0.922309 -1.26126 0.232742
        -0.388843 -0.19865 0.68151
        0.889455 -3.3714 -0.755446
        -1.24171 -1.71362 1.34464
        -0.714171 -0.502624 0.864192
        -1.36723 -0.933886 0.575713
        -1.48792 -2.64118 0.885932
        -0.29606 -2.08346 0.502325
        1.03009 -1.53538 0.308673