<?xml version="1.0" encoding="UTF-8" standalone="no" ?>
<VTKFile byte_order="LittleEndian" type="UnstructuredGrid" version="0.1">
  <UnstructuredGrid>
    <Piece NumberOfCells="0" NumberOfPoints="1764">
      <PointData>
        <DataArray Name="velocities" NumberOfComponents="3" format="ascii" type="Float32">
        -0.167291 -1.28133 1.1267
        0.860196 -1.67253 1.10484
        -0.00173562 -2.4721 0.833463
        -0.663865 -0.721272 0.145118
        -1.09947 -1.27354 -1.75758
        -0.642758 -2.04567 0.105976
        -0.480801 -0.797788 -0.0109064
        -0.381177 -1.92288 -0.260977
        -0.597436 -1.0689 0.91073
        0.332452 -0.995766 0.0705407
        -0.00853162 -1.83695 0.304177
        0.760026 -1.77192 0.439513
        -0.091902 -0.809389 -1.06652
        -0.14148 -1.84764 0.133804
        -0.0656778 -1.97216 0.234817
        0.550445 -1.61596 -0.0316396
        0.396758 -0.2328 -0.0695661
        -0.652719 -1.3607 -0.327607
        -1.52542 -0.656331 0.28259
        -0.651158 -1.3227 0.460548
        0.405278 -1.42699 -1.02624
        0.525524 -0.975357 -0.0118949
        0.643755 -1.0123 0.482566
        0.40389 -1.80856 -0.409307
        0.567423 -2.98926 0.136223
        -0.40469 -0.617084 -0.522431
        -0.301825 -2.03437 -1.69973
        -0.220139 -1.78779 -0.730489
        -0.26449 -1.15235 -0.100118
        1.06365 -1.66634 -0.722393
        -0.699575 -1.37781 -0.476857
        1.16724 -1.0545 -0.698817
        -0.936547 -0.535107 0.600421
        0.36461 -2.22374 1.76274
        0.453013 -1.44738 -0.976909
        -0.292348 -2.57324 0.00256876
        1.2186 -1.86763 -1.01105
        0.287007 -2.09294 -0.779337
        1.27061 -0.90133 -0.473047
        0.226633 -2.29249 0.348975
        1.28432 -1.0961 0.854829
        -0.148755 -0.629094 0.127124
        0.0314465 -1.71766 1.5774
        -0.190718 -0.647933 1.2537
        0.262768 -1.33949 0.607867
        -0.422812 -1.6238 -0.354841
        0.123762 -1.69517 -0.068815
        0.366821 -2.07955 0.112563
        -0.781356 -1.16041 -0.00712236
        0.711182 -0.105155 -0.334794
        -0.078657 -0.958 0.476035
        -0.931274 -0.754419 0.0357416
        -0.571782 -0.753918 -0.48955
        -0.822047 -0.991153 -0.402634
        0.886914 -1.06957 0.93918
        0.160863 -1.81889 -0.106817
        -0.251153 -1.36352 0.419657
        0.515861 -0.782756 -0.0861707
        -0.781915 -1.77029 -1.02152
        0.658135 -0.894821 0.69778
        -1.13924 -1.0007 -0.647932
        0.509698 -1.52617 -0.642462
        0.736825 -1.0057 -0.0431292
        0.896781 -2.29242 -0.381828
        0.199582 -1.0318 0.33958
        0.65283 -0.928457 0.818532
        -0.140235 -1.12437 1.11996
        0.238616 -0.794723 -0.271612
        -1.21549 -1.70814 -0.435111
        -0.0936612 -2.71977 -0.984895
        0.802687 -1.97154 -0.609559
        -0.749325 -0.468802 -0.535487
        -0.0158437 -1.02925 0.138804
        0.0871534 -2.00429 0.548625
        0.313676 -1.07833 -0.187135
        -1.00965 -2.40212 0.383611
        0.386842 -0.615848 0.316627
        0.614877 -1.84569 -0.0874548
        -0.323157 -2.59392 -0.31515
        -0.208766 -1.63294 -0.183708
        -1.10105 -2.46067 -0.496661
        0.195613 -2.23608 0.493428
        -0.665651 -1.4838 0.417091
        0.993184 -0.819404 -0.691959
        -1.25245 -1.60518 -0.242356
        -0.195435 -2.08767 -0.250461
        0.709336 -1.13191 -0.513454
        -0.330962 -0.939412 -0.62556
        -0.619035 -1.35507 -0.28396
        0.556027 -2.47879 0.206303
        -0.69423 -1.65211 0.429994
        -0.443974 -1.50597 0.562433
        -0.735997 -2.03621 -1.13815
        -0.24031 -2.25368 -0.430186
        -0.459959 -2.49935 -0.313276
        0.34151 -2.11372 -0.690447
        0.146341 -0.588578 0.0478828
        -0.369727 -0.647017 -0.112519
        1.59464 -2.32275 0.373558
        0.441537 -0.500628 -0.227379
        0.321386 -2.51873 -0.184654
        -0.157612 -1.37303 -0.863515
        -0.650956 -0.144565 0.231999
        0.414378 0.153221 0.423559
        0.278668 -2.41803 -0.310736
        -0.596916 -1.49973 0.804535
        0.275813 -1.70242 0.232847
        -0.287029 -1.35321 0.42935
        -0.429357 -1.10952 -0.0819729
        1.65294 -1.50797 0.446216
        0.381114 -1.32278 0.043489
        0.0805437 -0.717662 0.0706141
        0.343924 -1.23161 -1.28626
        -0.444821 -0.553338 0.72506
        0.290653 -2.24937 1.37068
        -0.015655 -0.474139 -0.326871
        0.34423 -1.50871 -0.725674
        -0.38771 -0.186355 -1.40237
        0.524689 -1.88383 0.588833
        -1.65602 0.0239534 -0.074485
        0.709221 -1.39393 0.17757
        0.465691 -3.12938 -0.20339
        0.293327 -1.92459 -0.72131
        -0.246963 -2.07443 -1.44251
        0.0560987 -2.66805 0.445814
        -2.04108 -0.946143 0.106532
        -0.390099 -1.25617 0.422526
        0.34469 -1.26801 -0.0465338
        -0.0933594 -1.28108 0.547808
        -0.453499 -1.1664 0.184208
        0.12027 -1.99587 -1.26281
        -0.929151 -1.911 -1.61085
        -0.725416 -1.64815 0.288005
        -0.177732 -2.11879 0.0578852
        0.107614 -2.90818 -1.14265
        -0.454716 -1.72211 0.247307
        0.813897 -2.01697 1.29583
        1.20206 -1.70753 -2.04687
        -0.0536094 -2.03894 0.565283
        0.418166 -1.11786 -0.114919
        1.02366 -2.0683 1.32258
        0.493878 -2.0355 0.232261
        0.583784 -1.98741 -0.459055
        0.815524 -3.19893 -0.123699
        0.77498 -0.540593 -0.39287
        0.204202 -0.513487 0.188418
        0.161198 -1.87296 -0.3781
        2.17518 -1.01105 0.158901
        0.036807 -2.60479 -1.20924
        -1.95925 -0.534614 0.656711
        -0.600996 -1.46071 0.604089
        0.0815318 -2.33468 -0.398496
        0.0204435 -0.809868 0.557
        0.225985 -2.50822 -0.418957
        0.772865 -1.68522 -0.0397147
        -1.00628 -1.13382 1.03758
        1.33288 -1.19777 1.59479
        0.464716 -0.606438 1.42945
        0.263166 -1.30737 0.241886
        0.489767 -1.59151 0.456366
        -1.43435 -0.793892 0.846066
        -0.462216 -0.842112 0.0274756
        -0.328275 0.305981 -0.511085
        -1.95327 0.116034 -0.00087112
        -0.826324 -0.186257 -0.385837
        0.2485 -0.168159 0.631683
        -0.992474 -0.20017 -0.0992239
        0.835008 -1.51831 -2.18345
        0.959778 -1.86468 1.3967
        -0.230329 -1.46021 -0.395417
        -0.911005 -1.85217 -1.12188
        0.562046 -1.67831 -0.744439
        -2.56913 -1.4729 0.987583
        1.2948 -0.942599 1.23623
        -1.62981 0.310997 0.240779
        -0.157997 -0.673945 0.201334
        1.10227 -2.81103 2.28076
        1.15649 -0.723834 -0.856516
        -1.23705 0.18912 1.31076
        0.35048 -0.459537 -0.837548
        -0.259338 0.372507 1.18871
        -0.885446 -0.0274853 -0.0139673
        0.174355 -0.585808 -0.632976
        -1.35084 -0.496107 -0.0517751
        0.353522 -0.599624 -0.0683803
        -0.30046 -1.01464 -0.197854
        -0.902374 -0.785212 0.411242
        -0.53253 -0.990768 -0.260613
        -0.763521 0.780722 0.212269
        0.407445 -0.910123 -0.680455
        -0.844773 -0.392 -1.60981
        -1.48688 -0.70477 0.479856
        0.321396 -0.107759 0.306496
        -1.1538 0.803405 -0.909027
        0.278752 -1.12992 0.9865
        0.283621 -0.52122 -1.28248
        -0.437881 -0.0904856 -0.0403726
        0.45268 0.106714 0.0992679
        -0.578424 0.996879 1.0203
        -0.507611 0.91067 0.403031
        1.72638 -0.026592 0.318713
        0.205432 0.358833 1.95775
        0.189385 0.150811 0.90861
        -1.02267 -0.416015 -0.120343
        0.0405635 -0.112504 0.0315986
        1.00632 0.491991 0.164433
        1.56482 0.482175 0.210614
        -1.38601 1.13408 0.625755
        -0.455632 -0.23279 1.51742
        -0.928155 0.919419 0.256685
        0.044388 0.817411 0.642248
        -0.0842833 2.04246 0.923286
        -0.398295 1.09158 -0.24997
        -1.7507 0.777233 -0.1533
        1.1687 0.935305 0.369521
        -1.22638 1.23841 1.48749
        -0.0875441 0.00485049 -1.51201
        -0.00893665 1.00568 -0.164334
        -1.01052 1.03748 1.52353
        0.415215 0.885066 1.07425
        0.182124 0.329272 -1.02734
        -0.515439 1.19114 0.489089
        0.422915 0.409416 0.0911342
        0.539777 0.334305 0.657125
        0.270386 -0.624925 0.791825
        -0.60455 0.134411 -0.393233
        -1.26442 0.20492 -0.583362
        -0.338667 0.695301 -0.210954
        -0.650893 0.781754 0.716945
        0.199335 0.617984 -0.950572
        -0.02315 1.09384 -0.661645
        -0.668309 0.511431 -0.719774
        -0.0814478 -1.69063 0.94372
        -0.0382501 0.185232 -0.410052
        -0.567319 0.749476 0.603274
        0.332969 1.15571 0.339184
        0.161997 -0.497405 -1.24511
        0.238096 -0.298736 -0.812249
        -0.00335081 0.903986 0.726216
        0.143968 2.16623 -0.749702
        0.710349 1.43816 0.0746867
        -0.0807177 1.45293 0.992169
        1.6618 1.58757 0.570283
        0.936924 0.509594 0.752671
        1.16761 0.239469 0.311404
        -0.71995 1.25615 0.395988
        -1.23629 2.00382 -0.770855
        -0.974891 0.705191 -0.0941007
        -0.764254 0.959449 -1.01675
        0.0069579 1.06853 1.0592
        -0.880868 -0.000377868 -0.847988
        0.180303 0.311843 -0.878949
        0.789556 -0.0358159 0.407313
        0.223681 0.726259 0.310428
        0.745891 1.89543 0.591808
        0.787516 2.20905 -0.808922
        -0.90634 0.190565 -1.4281
        0.013158 -0.0651865 -0.39092
        0.106337 1.81122 -1.08153
        0.504825 2.45316 -0.135191
        0.360476 0.352071 -1.32775
        -0.519759 1.03579 0.00325404
        1.04788 2.81678 -0.904082
        0.194943 1.9701 0.68588
        0.488637 1.9613 -0.0134042
        -1.329 1.39958 -0.730265
        0.986871 0.692692 -0.746867
        -0.277192 2.57726 1.26311
        -0.426446 0.577212 -0.489045
        0.104722 1.68096 -0.304766
        -1.07263 2.7111 -0.0707615
        0.615029 0.59718 0.891116
        -0.513385 1.53603 -0.455111
        -0.431797 1.00963 -0.698514
        -0.800164 1.98937 -0.198307
        1.31932 1.90467 -1.64276
        1.35419 0.42565 -0.280979
        0.934775 1.93286 -0.187732
        0.148678 2.1275 0.586266
        -0.884192 1.75927 -0.858795
        1.39704 0.978946 0.343806
        1.19099 2.28584 -0.893638
        -0.108456 2.57118 -0.559497
        -0.935859 1.01814 0.545141
        0.582677 0.809534 0.0742606
        -1.1495 1.80142 -1.79509
        -0.780212 1.61094 -0.0782799
        0.423474 1.19472 -0.605514
        0.275686 2.01096 0.21852
        -0.093471 2.09184 -0.631819
        -1.11764 1.13542 -0.438508
        -0.252114 0.796769 -0.17665
        -0.716848 1.83432 -0.0490072
        -1.68245 1.84622 0.760384
        -0.104912 1.94016 -0.733923
        0.372234 1.39053 1.96368
        0.135187 1.59409 1.23795
        0.154328 2.12509 -0.237456
        0.166097 1.56648 -0.253932
        0.773176 0.71952 -0.71852
        1.39253 1.49163 -0.673676
        -0.7737 1.20672 0.69667
        1.01339 1.56777 -0.858422
        -0.0693675 0.979289 -0.235518
        -0.58563 1.60708 0.610411
        -0.141863 1.65318 1.46387
        0.179051 1.29092 -1.11785
        -0.907064 2.06198 0.599283
        0.0959182 1.41304 -0.713802
        0.747716 1.66219 0.388256
        0.498926 2.05918 0.272706
        -1.00633 1.75546 -0.071011
        0.356234 0.957675 0.468487
        -1.05146 1.41194 -1.14574
        -0.203243 2.4455 0.560216
        -0.0109738 0.196468 0.366248
        -0.0114108 1.73739 0.654813
        -0.00504297 1.62816 0.265976
        -0.699742 1.93012 -0.504251
        0.00562204 1.42047 0.373547
        -0.280778 1.15729 -0.870074
        0.762747 1.2054 0.459763
        -0.608554 1.02934 0.571218
        0.0827689 1.5257 0.492163
        0.471163 1.7086 -1.5639
        0.70715 0.879456 0.524858
        0.422683 1.41106 -0.553843
        -0.414671 1.25913 0.246569
        -0.9565 1.76163 -0.77316
        -1.4436 1.26055 1.11877
        -0.600342 0.68784 0.0424197
        -0.164171 -0.088013 -1.05878
        0.662206 0.70375 -0.315822
        0.710945 1.75935 0.0952178
        -0.63563 1.38034 0.00173022
        -0.174278 1.04386 -0.375847
        0.747303 0.507786 0.327658
        -1.27913 1.76886 0.485178
        0.0785849 1.60702 -0.744078
        0.878032 2.9059 1.05245
        0.60147 3.09165 -1.12147
        -0.722388 0.97713 -0.519236
        -0.560122 2.20338 -0.245634
        1.16368 0.89419 0.561115
        -1.31484 0.845033 0.263773
        0.370644 2.38221 0.597049
        0.0247261 0.383598 -0.0551936
        -1.00768 1.58346 -0.56479
        0.759461 2.36387 -0.887579
        -0.159079 1.51385 -1.22481
        0.503509 1.14328 -0.541581
        -0.575004 1.06129 1.0647
        1.19347 1.69276 -1.83704
        -0.900949 1.18524 1.50259
        0.463374 2.13966 -0.192941
        -0.956916 1.9566 -0.00742599
        -0.207757 1.16084 0.0330661
        1.02078 1.03946 -0.281266
        0.55426 1.87397 0.0533248
        1.08082 1.18804 -0.464126
        -0.263551 1.11726 -1.08777
        0.960641 1.76292 0.17178
        -0.721444 1.19569 0.280291
        -0.428894 1.6906 0.998589
        0.596772 1.31196 0.519412
        -0.402649 1.79076 0.709686
        1.27476 0.955608 -0.867196
        -0.25626 1.58205 1.04755
        0.429561 1.08245 -0.263895
        -0.613287 1.19213 -0.886296
        -0.49319 2.74665 0.303412
        0.0760898 0.777241 -0.844636
        0.474214 2.12686 0.763182
        -0.2962 0.65742 0.723632
        -1.1351 1.89492 0.609643
        0.133399 1.59429 0.589893
        0.0123361 2.0349 -1.11702
        -0.724322 2.00526 -0.735461
        -1.40603 1.38112 0.861803
        0.0144237 2.03517 0.0907677
        -0.0786151 0.923651 -0.464094
        -0.832976 2.14091 -0.932166
        -0.51477 0.596749 -0.182081
        -0.0610897 0.0614731 -0.368883
        0.0822583 1.99266 -0.220018
        -1.70088 2.08502 -0.726887
        -0.915395 1.26453 0.486435
        -0.679399 1.38511 0.093119
        0.259455 1.98902 -0.574949
        -0.559786 1.87918 0.797475
        0.272232 1.86736 0.261526
        -0.000633432 0.626678 1.0494
        0.374496 2.73751 -0.418763
        -0.427037 -2.17354 -0.75573
        0.637263 -1.71433 -0.317122
        0.560605 -1.61814 0.0195444
        -0.614202 -1.05013 0.154353
        -0.0487929 -2.13586 0.411569
        -0.422954 -2.20864 1.03887
        -0.422665 -1.10022 -0.796231
        -0.154398 -1.40718 -0.663715
        0.19344 -0.421081 0.22684
        -1.07309 -1.41146 -0.0856431
        0.593315 -2.62255 -1.50439
        0.202962 -1.53857 0.705317
        0.716491 -2.1915 -0.0488531
        0.926136 -2.9576 -1.06153
        0.355132 -1.50337 0.222022
        -0.0920559 -1.24056 -0.615276
        -0.322048 -1.33353 -0.0178692
        0.158288 -0.873535 0.0329366
        -0.448011 -1.26843 -0.148188
        -0.263494 -1.22511 0.743321
        0.8321 -0.950149 -0.323835
        -0.979252 -0.974247 -0.437056
        -0.382389 -3.06928 0.438523
        -0.0602356 -1.8529 -0.304776
        -0.427406 -0.743216 -0.376366
        0.595923 -1.66924 -0.521988
        0.108097 -0.699208 -0.231258
        -0.728283 -1.43585 -0.0314319
        0.722709 -1.11387 0.0113294
        -0.170697 -1.34305 -0.928871
        0.630773 -1.07231 -0.412183
        0.252387 -1.4217 0.0463016
        0.0905462 -0.680362 0.0920902
        -0.0421446 -1.9832 0.0605014
        0.204568 0.0185621 -0.536302
        -0.941496 -1.42475 -1.20253
        -0.293229 -0.79575 0.0174738
        -0.963175 -2.08829 -0.909952
        0.395558 -1.05445 0.786118
        -0.697802 -1.59361 -0.798742
        -0.502873 -0.513963 0.380994
        0.25127 -0.982988 0.434016
        -0.852248 -1.93224 -0.730182
        -0.993829 -2.05555 -0.000863582
        -0.285011 -0.723519 0.0887286
        -0.320781 -1.57589 -1.19802
        -0.712439 -0.581088 -0.247708
        0.355961 -2.32477 -0.485542
        0.306696 -0.65147 0.469016
        0.252293 -1.46395 -0.615524
        -0.359362 -2.04041 -0.843459
        0.406049 -3.3782 0.185185
        0.473239 -0.654494 -0.999343
        0.0457082 -1.52056 -0.181409
        -0.55675 -1.54948 -0.175025
        -0.218694 -0.939469 0.544356
        0.135506 -1.3703 -0.382654
        0.132637 -0.581238 0.511285
        -0.687088 -0.649348 -0.22036
        0.27155 -0.889094 0.122442
        0.422601 -1.83667 -0.0684914
        -0.740414 -2.27853 -1.20535
        -0.655904 -0.661409 -0.0697084
        0.0348986 -1.58446 0.689019
        0.566297 -2.23942 -0.333861
        -0.0297807 -1.21535 -0.275533
        0.0701235 -3.62487 -0.554033
        -0.583399 -1.10245 0.854029
        0.774923 -0.675633 -1.39537
        -0.498026 -0.974119 -0.373819
        0.0443757 -0.981129 -0.0156436
        -0.696471 -1.62847 -0.812898
        -1.05547 -1.47594 0.390188
        -0.125137 -0.888974 -0.634477
        0.387084 -0.685651 -1.10857
        0.473294 -1.46076 1.32944
        0.67853 -1.08881 -0.0475392
        0.0888228 -0.782009 0.815232
        0.0341178 -1.2134 -0.502848
        0.272889 -1.43601 -0.682019
        -0.523936 -1.9493 0.352724
        0.67436 -0.367462 1.63456
        0.40785 -1.01286 -1.50438
        0.592643 -2.14778 -0.0355639
        0.00687433 -1.69844 -0.243968
        -0.257607 -1.04981 -0.634777
        0.0756978 -1.40358 -0.0937619
        -0.709833 -0.935087 0.164245
        -0.490626 -2.07535 -0.463891
        -0.317774 -0.716714 1.07335
        0.218858 -1.59169 -0.703792
        0.104555 -1.59562 -0.473167
        -0.209974 -1.66011 -0.0893204
        -0.686218 -1.09909 -0.829814
        0.343312 -1.93783 0.802348
        -0.425135 -0.452696 -0.774641
        0.282403 -1.60032 -0.14642
        -0.815426 -0.208637 0.110054
        0.157194 -2.0655 -1.21209
        -1.35401 -2.67302 -0.0262516
        0.230044 -0.97399 -0.378392
        0.962892 -0.490773 -0.391502
        0.302649 -1.68649 0.157042
        0.693265 -1.29077 0.230154
        0.70103 -1.47754 0.291643
        1.24813 -1.36404 -1.30315
        -0.291664 -0.471722 -0.0176617
        1.03073 -2.42878 -0.978287
        -0.618008 -0.893808 0.234987
        0.116444 -1.94006 -1.13399
        0.413933 -1.12866 0.806805
        0.112412 -1.60638 -0.872927
        0.970666 -0.882523 -0.715871
        0.699001 -2.48939 0.700255
        2.19577 -1.31384 -0.0979236
        -0.356434 -0.32121 -0.427722
        -0.333106 -1.45543 0.448869
        1.02914 -0.935836 1.41635
        0.525875 -1.20043 -0.432416
        -0.333433 -0.990274 -0.174447
        0.836011 -1.98825 -1.33119
        0.968049 -1.40356 1.35078
        0.69317 -1.19706 0.124016
        1.29494 -1.45735 0.357952
        0.275509 -1.36143 -0.421247
        -1.21882 -0.694011 0.20716
        -1.0008 -1.99878 -0.258964
        0.228921 -0.426024 0.417788
        -0.864609 -1.80064 -1.35861
        0.415551 -0.458152 -0.933752
        -0.00542156 -0.661674 -0.230602
        0.0948577 0.85807 0.964516
        -1.72092 -1.51412 -1.34686
        0.552964 0.369376 -0.469579
        0.522465 -0.871521 0.610683
        0.603813 -1.221 0.434563
        -0.351833 -0.835693 0.0845992
        -0.376818 -1.16942 -0.772218
        1.51004 -0.751375 0.270441
        0.592904 -0.96521 0.14931
        -0.637616 -1.50878 -0.509129
        1.09168 -1.25734 -1.42896
        -0.282115 -1.89538 -1.44429
        -0.120675 -1.22604 -1.57151
        0.670816 0.0536231 -0.419359
        -0.109155 0.0435004 0.652864
        -0.167917 0.248383 -0.533751
        -0.221154 -1.26163 -0.188369
        -0.622071 -0.528902 0.754836
        0.440606 -0.82699 -1.1508
        -0.105713 -0.0401438 0.640174
        0.257426 -1.39619 0.74592
        -1.54629 -1.1819 1.30689
        -0.0137172 -1.02372 -0.404458
        0.0858747 -0.950739 0.236606
        0.257317 -1.12351 -0.275558
        -0.456581 -1.50017 -1.47403
        0.624186 -1.17406 -0.391945
        1.16275 -0.94396 0.101996
        0.92786 -0.0870883 0.279818
        -0.294482 0.761586 0.0220864
        -0.220198 -1.44741 -0.534735
        -0.0808471 -0.608216 0.74849
        -0.67828 -2.38607 -0.703369
        0.170878 -0.310654 0.0273883
        2.35325 -0.643226 0.120943
        0.748553 -1.84011 -1.07132
        0.163629 -2.16302 1.07847
        0.0450324 -1.24947 0.0290784
        -0.0154902 -0.326959 0.531939
        -0.382994 -1.99426 -0.519029
        -0.306255 -1.62188 0.0984574
        0.891674 -0.846531 -0.678432
        -0.625637 0.0548913 -1.36183
        -0.659487 0.398801 0.0474618
        -1.41211 -0.789064 -0.153424
        0.1255 -0.697315 -0.865334
        0.321174 -0.855315 0.0198076
        -0.529607 -0.113757 0.493614
        -1.26932 -0.331789 0.0476862
        -0.531224 0.320389 -0.504145
        1.25429 -1.12363 -0.534317
        -0.0253885 -1.1244 0.537586
        1.04833 0.807449 1.3151
        1.04713 -0.268629 -0.840845
        0.323931 0.356616 -0.472555
        0.823124 0.351072 0.895915
        0.238936 -0.0708995 -0.834582
        -0.261372 0.039183 0.541795
        1.80242 -0.00173846 0.0877827
        0.24203 -1.11153 1.57299
        0.95845 1.41652 -0.105193
        0.286385 1.71703 -0.0844956
        -0.441142 1.76796 -1.07776
        1.28737 1.04472 -0.264019
        -0.231318 1.9306 0.0520855
        -0.20735 0.878017 -0.314875
        0.382574 0.0877784 1.48713
        0.204095 2.02859 0.0893092
        -0.204657 -0.0365452 -1.1563
        0.711627 0.773962 -0.971497
        1.84491 1.51445 -0.51693
        0.776967 1.8132 -0.353079
        -0.0771029 1.14001 -0.588107
        1.07201 0.0139431 0.488807
        0.501739 0.032921 -0.54131
        -1.81302 1.07061 0.89022
        -0.431602 1.23182 0.741199
        0.581974 1.30528 -0.497133
        0.0689561 1.18992 -1.03219
        -0.530968 1.25184 0.417274
        -0.533882 2.16673 -0.0141808
        -0.30865 2.87536 0.375873
        -0.254529 1.12389 -0.548744
        0.816438 0.20085 -0.773183
        -0.484693 0.796739 -0.0195989
        1.01266 0.872954 -0.250596
        -0.669353 1.34132 -1.70266
        -0.0907816 0.661642 -0.107656
        -0.0230611 0.295013 0.0947961
        -1.40573 1.37841 -0.569095
        1.52922 0.698464 0.238105
        -0.591051 2.04438 0.563922
        -1.73295 1.58667 0.414129
        -0.556045 0.539702 0.0416606
        -0.171413 1.53656 -0.00297703
        -0.0071647 0.906286 -1.07308
        0.519426 0.829624 -0.00123656
        0.529715 1.7237 -1.47598
        -0.502214 1.92119 0.115215
        0.22581 2.06249 -0.542221
        -0.183758 0.904529 -0.315774
        1.00003 1.37004 0.730603
        -0.221711 2.07359 -0.160656
        0.303928 1.69083 -0.321423
        -0.290097 1.97663 1.18157
        -0.121006 1.76068 0.988947
        -0.760763 1.45354 0.174716
        -0.354196 2.39883 0.304032
        0.0807192 1.63349 -0.180653
        0.320542 2.50232 0.193843
        0.378133 1.78163 0.601198
        -0.0321509 0.155474 0.166065
        -0.481801 1.4155 -1.01788
        0.644411 0.265601 0.518581
        -0.255019 1.50173 -0.112458
        -0.792615 0.597388 -0.973709
        0.797451 0.631932 0.684846
        0.23736 2.3738 -0.649085
        0.716477 -0.0449844 0.493486
        -0.717055 -0.162619 -0.178035
        0.558821 1.63188 -0.433579
        0.968682 1.79749 0.156279
        -0.794791 0.668206 0.881798
        0.967465 1.17936 0.640349
        -0.330999 0.740805 0.0992751
        0.230777 2.07859 0.844733
        -0.549479 0.970308 -1.3052
        0.273352 2.04828 -0.195223
        -0.651189 1.5666 0.271429
        0.648844 1.56349 -0.680503
        -0.20924 1.95545 -1.4866
        0.741555 1.72256 -0.140992
        -0.545614 1.86109 0.332485
        0.370055 1.9854 0.283745
        -1.42417 0.815809 -0.570238
        -0.0382876 0.754133 -1.90249
        -1.80631 1.39753 -0.442379
        0.136393 0.810245 -0.870494
        -0.112262 1.44125 0.127986
        -2.19527 0.98294 -0.219352
        -0.636297 3.16345 0.229348
        0.204317 0.832589 1.27112
        -0.618256 1.40911 -0.112573
        0.881355 0.679863 0.956964
        0.00568459 3.12591 0.247878
        -0.523521 1.18524 0.00199441
        0.0146829 2.40535 0.759616
        -1.65024 1.00527 1.31207
        -1.20487 -0.279188 -1.05756
        0.571177 1.08169 0.927508
        -0.0878942 2.87809 -1.41761
        -0.0715702 1.66703 0.810979
        -0.803738 1.55094 0.363388
        0.150341 0.213961 -1.62727
        -1.98387 1.03406 -0.280147
        0.879734 1.70355 0.564552
        0.537826 1.51512 0.196592
        -0.503797 0.293802 0.800728
        -1.51183 0.610917 0.0390345
        0.512432 1.68855 0.481966
        0.499243 1.01018 0.953444
        0.349169 1.59312 -0.208518
        -0.0324453 2.07795 -0.374167
        0.157138 2.82943 -0.32531
        -0.50733 2.08008 -1.33746
        -1.23611 0.794074 -1.26686
        -0.0551679 1.53572 0.700867
        0.759888 0.678973 -0.262214
        1.35871 0.959906 0.510407
        -0.723483 2.84578 -0.250312
        0.0488369 2.92518 -0.565177
        0.599647 1.85111 -0.482715
        0.866753 1.26049 0.293137
        -2.09257 1.17893 0.588448
        -0.320026 0.650764 -0.21805
        -0.412129 1.91244 0.25391
        -0.541641 0.649375 0.231013
        -0.0326622 1.01284 -0.202173
        0.977082 0.653584 -0.9149
        1.02655 0.859715 0.370087
        -0.500233 1.1601 -0.40383
        -0.150965 1.19482 0.358629
        -0.382187 -0.0979831 -0.0460595
        0.957785 1.93958 -0.889034
        -0.805149 0.856195 0.260132
        -0.283045 2.54223 1.05807
        -0.57907 0.777543 -1.44583
        0.306215 0.925735 -0.599446
        0.460664 1.96768 -0.0923329
        0.350855 2.39938 0.187141
        0.99755 2.53712 0.214985
        -0.335832 2.02614 0.10999
        -0.290854 0.770669 0.784357
        -1.44707 -0.497726 -0.327326
        0.45525 1.72884 -0.725625
        0.0157375 1.83465 -0.53772
        1.09426 0.538987 1.11891
        0.320364 2.14727 -0.387252
        -0.497405 2.90539 -0.093469
        -1.35721 0.778803 1.55088
        -0.306855 1.6781 -0.981584
        -0.139156 1.15643 -0.445949
        -1.14664 1.76798 -1.52946
        0.329739 1.99257 -1.43914
        0.00974556 1.77865 -1.07291
        -0.430958 2.23019 0.679454
        0.95579 1.58754 -0.676108
        0.5324 0.982528 1.17779
        0.596783 1.35641 0.500363
        -0.479629 0.938817 0.319779
        1.07638 1.26291 -0.689638
        -0.282104 0.692684 0.0593545
        -0.298925 2.72588 -1.09691
        -0.486758 2.00558 0.898513
        -0.18061 -1.2081 1.11296
        0.204001 -1.39996 -0.233734
        0.926453 -1.72192 0.394812
        -0.322697 -2.06798 -0.535071
        -0.304159 -0.916544 0.961181
        -0.278476 -0.197041 -0.523894
        -0.979638 -1.75869 -0.591905
        -1.2404 0.0135871 0.960617
        0.407621 0.614864 0.0594019
        -1.44698 -1.62592 0.627409
        1.34516 -0.93624 0.920604
        0.0221475 -0.252023 -1.32046
        0.359615 -0.824444 0.0321925
        -0.719409 -1.98363 -0.046049
        0.282104 -0.692684 -0.0593545
        -0.935709 -1.09882 -0.297964
        -0.542637 -1.11869 0.132272
        0.170622 -1.46472 -0.319981
        0.901101 -1.58701 -0.979396
        -0.415457 -1.41134 -0.0768701
        -0.258021 -0.998336 -1.00624
        0.519511 -2.67515 0.224838
        -0.396461 -2.36399 0.610058
        0.939464 -1.21138 -0.146979
        1.25107 -1.48391 0.0893848
        -0.487392 -0.959537 1.03497
        0.462956 -2.20106 1.23917
        0.276354 -1.87904 -0.333159
        -0.329952 -0.853227 0.829041
        -0.709146 -0.476228 -0.816734
        0.0752604 -1.14338 -0.0512652
        0.838145 -2.18508 0.0674964
        0.77823 -0.983926 0.962942
        0.755403 -1.59742 0.902016
        0.796836 -0.631395 -0.886005
        0.06077 -0.699942 0.144051
        -0.713865 -1.32344 -1.31856
        -0.373487 -2.29945 -0.443035
        -0.681935 -2.5618 -0.685798
        0.248341 -1.33861 -0.288812
        1.63456 -2.15346 0.346305
        -1.09426 -0.538987 -1.11891
        0.627676 -1.74621 -0.160144
        -0.0242108 -0.917855 0.96792
        -0.60632 -0.648129 -0.472941
        -0.128689 -1.65775 -0.318643
        0.588789 -1.83577 0.0563683
        0.645071 -0.699049 -0.484526
        -0.155241 -1.30998 0.164347
        0.266769 -2.68467 -0.037518
        -0.259066 -1.04653 0.644192
        0.344223 -1.37515 -0.266543
        -0.687563 -1.93679 -0.873855
        0.176009 -1.69403 -0.326298
        -0.0148825 -0.440506 1.44298
        0.673797 -2.10846 0.876848
        -0.644411 -0.265601 -0.518581
        -0.648418 -1.20979 -0.109789
        -0.505819 -0.0505634 -0.583952
        -0.0318794 -1.76579 -0.457807
        -0.18074 -0.173459 -0.0334483
        0.822784 -0.436968 -0.0389739
        0.0156251 -1.61529 0.318577
        0.319382 -2.08157 -0.743976
        -0.248502 -1.4213 -0.00746931
        1.65772 -1.5794 -1.39659
        0.723483 -2.84578 0.250312
        0.143513 -1.49597 0.701514
        0.671435 -1.28231 1.31717
        0.0341268 -0.179383 -0.382257
        -0.924712 -0.46805 -0.31457
        -0.368999 -0.437554 1.02336
        -0.310148 -1.66389 -1.85331
        -0.369612 -0.119556 0.0943642
        -0.183719 -0.567374 0.370506
        -1.73665 -0.621488 -0.550484
        0.203155 -1.06117 -0.277723
        0.132622 -2.4971 0.064654
        0.287371 -2.2836 -0.879503
        0.585795 -1.18633 0.016319
        0.962282 -0.835613 -1.19572
        -0.823881 -1.87918 0.189596
        -0.512432 -1.68855 -0.481966
        0.208475 -0.296293 -0.616126
        -0.396099 -1.71146 1.11352
        -1.57268 -1.33642 -0.337159
        0.840363 -1.45418 1.25754
        0.893219 -1.87588 0.943091
        -0.343718 -1.7597 -0.530814
        0.0959523 -1.16504 -1.03387
        -0.859017 -0.634977 -1.09948
        -0.0622431 -2.30196 0.370424
        0.0716885 -2.17456 -0.9639
        0.267979 -1.62378 -0.450807
        -1.93777 -1.74806 -0.539997