<?xml version="1.0" encoding="UTF-8" standalone="no" ?>
<VTKFile byte_order="LittleEndian" type="UnstructuredGrid" version="0.1">
  <UnstructuredGrid>
    <Piece NumberOfCells="0" NumberOfPoints="1764">
      <PointData>
        <DataArray Name="velocities" NumberOfComponents="3" format="ascii" type="Float32">
        0.8059 -1.63774 0.495842
        1.56234 -0.918476 -1.46235
        -0.370001 -1.35907 -0.959364
        0.437679 -1.20533 -0.262109
        -0.304103 -2.21576 -0.620971
        0.0487388 -1.58331 0.320677
        0.963327 -2.20049 0.205201
        -0.785649 -1.28042 -0.335187
        -0.0940537 -1.59443 1.05527
        1.20006 -1.1401 0.157808
        0.010603 -0.390452 -0.180562
        -0.368517 -0.374823 -0.00783008
        -0.578336 -0.700439 0.530191
        -1.03294 -0.436973 -0.280635
        1.51867 -0.997397 -1.93689
        0.195715 -2.66521 -0.285394
        1.02668 -1.48167 1.16186
        -0.595564 -1.01459 0.00191852
        0.845052 -0.641999 -0.42261
        -0.907136 0.0960821 -0.944042
        -0.189696 -2.1679 -0.499234
        1.14255 -1.31295 -0.340701
        0.0603216 -0.772689 0.0209387
        -0.920295 -0.924062 0.140046
        -0.629213 -2.0353 -0.802625
        0.138368 -0.918262 -0.55499
        0.317896 0.248333 0.626062
        0.020828 -0.703664 -0.622795
        0.309392 -0.472283 -0.577679
        0.681078 -1.54412 0.438358
        -0.863012 -1.4343 0.0697209
        0.741879 -1.70345 -0.743742
        -1.05092 -1.48172 -0.142788
        -0.144796 -0.443696 0.660627
        -0.253459 -1.15944 0.517878
        1.06273 -0.62792 -0.0471779
        1.43766 -1.62924 -0.0884299
        1.54757 -0.847232 -1.55621
        0.0291141 -0.367441 0.0408769
        0.166918 -1.05019 0.520127
        -0.087977 -1.99378 -1.16547
        0.0385085 -2.01053 -0.389492
        1.11912 -0.472228 0.15219
        -0.545088 -1.636 1.03813
        0.198422 -2.20388 0.447625
        0.613058 -2.87203 0.271612
        -1.60026 -0.709311 0.11842
        0.54604 -1.6443 -1.16645
        -1.17939 -1.50083 0.534758
        -0.126899 -1.19267 1.87577
        -0.808 -2.14761 1.31796
        0.344428 -1.1 -1.55453
        0.114111 -1.96939 -0.535896
        -0.447121 -1.49085 0.375717
        -0.323491 -2.29207 0.816186
        -0.498375 -1.38814 -0.47128
        0.432264 -0.842793 -1.28719
        2.3221 -1.85489 -0.110914
        0.0957538 -0.848498 0.359774
        0.54995 -1.59458 -0.134243
        1.20519 -1.16262 0.768887
        1.44025 -1.86629 0.697705
        -0.356857 -2.41786 -0.411765
        0.310284 -0.610891 0.510537
        -1.04705 -1.2573 0.825902
        0.526136 -0.831634 0.164396
        0.28839 -0.653912 0.820757
        0.532573 -1.5972 -0.451208
        0.434296 -1.89515 -1.85519
        0.330479 -1.5985 -0.59567
        0.691963 -2.04735 1.09311
        -0.434131 0.0819926 -0.770119
        -0.0667978 -1.8396 0.439983
        0.345612 -0.842689 -0.61127
        0.102417 -1.5357 -0.115334
        -0.14408 -0.944324 0.237749
        0.0949741 -1.74422 -0.117737
        0.278722 -0.879515 1.19591
        0.279018 -1.41047 -0.525334
        -0.40705 -0.575961 -0.586208
        1.41053 -0.349062 -0.474
        -0.685174 -2.26059 -0.114879
        -1.15676 -2.19274 -1.4635
        0.348834 -0.213668 -0.0774728
        0.0228088 -0.353483 -1.25275
        -0.397776 -1.28946 1.03237
        0.393744 -0.838512 -0.618189
        -0.468654 -2.16733 -0.915695
        -0.703586 -2.21765 -0.283122
        -0.917156 -2.18321 -0.903597
        0.50401 -1.92124 0.100502
        0.833087 -1.45142 0.124665
        -0.240815 -2.42307 0.404098
        0.0863334 -1.63175 1.1461
        0.591871 -0.330639 -0.254187
        0.173101 -1.73364 -1.20555
        0.680087 -2.37169 0.230225
        -0.831538 -0.552834 -0.555979
        0.498058 -0.866362 1.46263
        -0.86882 -0.619981 -0.281423
        -1.50549 -0.796474 1.7919
        -0.0100163 -1.69743 -0.0861546
        -0.170489 -0.939081 0.0808833
        1.19905 -1.07021 -0.0461886
        -0.0353245 -1.58397 0.0989624
        -0.488973 0.509438 0.266656
        -0.00504604 -1.28512 -0.244735
        1.04448 -1.44697 -1.15125
        -0.14677 -1.29474 -0.278573
        0.386817 -1.56428 0.0217104
        -0.295613 -1.29318 0.363241
        -0.932179 -0.452907 -0.910827
        -1.27379 -2.53849 0.100712
        -0.784716 -2.51342 1.81108
        0.123621 -1.6405 -1.46066
        -0.430053 -3.26691 0.979129
        0.500988 -1.4552 1.51879
        0.329351 0.273369 -0.462966
        0.556373 -1.74457 0.375267
        0.93771 -3.09642 -0.343771
        0.552932 -2.3351 -0.0537537
        0.223552 -1.3542 0.12013
        0.0793474 -0.919621 0.677616
        -1.17207 -1.1797 -0.600472
        -0.651875 -0.921849 1.47478
        -0.317386 -1.98556 -0.385593
        -0.353531 -1.5188 -0.685511
        1.29225 -1.62724 0.75104
        0.616429 -0.658994 -1.24631
        0.383069 0.710663 -0.0841168
        -2.40798 -1.27739 1.0214
        -0.38008 -1.62192 -0.315244
        0.671837 -0.958671 0.236421
        -1.02129 -2.41057 -1.0373
        -0.872992 -1.54472 1.12673
        0.278593 -0.815871 -0.461867
        -0.575681 -1.01304 1.35887
        -1.52526 -0.577415 0.0691145
        -1.29775 -1.60227 0.0905176
        -0.524447 -1.28883 -0.206109
        -1.10617 -1.27467 -0.16126
        0.727018 0.597791 -0.64587
        -0.596398 -0.613191 0.112118
        0.949681 -0.97142 -0.602596
        0.0585608 -0.390975 1.13133
        0.715651 -1.65202 -0.285938
        -0.541566 -1.96776 -0.288906
        0.556487 -2.27714 -1.99287
        -0.242207 -1.01827 0.767768
        0.591108 -1.19657 -0.0781421
        -0.401592 -0.39003 -0.691055
        -0.614265 -0.908447 -1.09876
        -1.81051 -1.4207 -0.476503
        -0.484283 -0.834373 0.834714
        -0.0137831 -0.814819 1.26759
        -1.02405 -1.80062 1.06269
        -0.582636 -1.42437 -1.39436
        1.84305 -1.15845 -1.2788
        -0.238955 -1.75583 -0.57059
        1.05602 0.31725 -0.160077
        -2.10569 -2.08505 1.16664
        0.467452 -0.585042 -0.651437
        -0.743975 -1.62174 0.769783
        -0.0900853 -1.69834 0.835506
        0.307551 0.279691 0.56295
        0.765696 -0.0373085 -0.470413
        0.631157 -1.60194 0.885372
        -0.542043 -0.0937958 0.828044
        -0.300338 -0.631689 -0.321548
        -0.752405 -0.288236 -1.04461
        -1.24484 -1.16681 -0.17236
        0.33575 -0.859073 0.557507
        -1.47103 -1.45426 -0.236792
        -1.22439 -0.577539 0.683454
        -0.977987 -2.77251 -1.01497
        0.499387 -1.86213 0.132609
        0.183541 -0.83399 0.934489
        -0.747399 -3.01163 -0.190636
        0.703259 0.0409074 -0.613876
        0.704717 -1.13264 -0.191767
        -0.209365 -0.838117 0.108584
        -0.356184 -0.929886 1.23568
        -1.33484 -1.3476 0.104698
        1.18509 -0.261308 0.401449
        -0.320629 -0.979334 0.688021
        -1.05398 -0.859204 -1.4021
        1.87559 0.275852 -0.571541
        0.784758 -0.321771 -0.100399
        0.503698 1.46316 -0.00606716
        -1.051 1.52462 0.949848
        -0.521225 1.04487 -0.440116
        1.34238 0.623759 2.15082
        -0.0119259 -0.979583 -0.186357
        -1.20441 -0.298482 0.605623
        -0.00789179 0.16019 -0.0894797
        0.832831 -0.170219 -0.799172
        0.474718 -0.251021 -0.0478734
        -0.877178 1.16975 -0.425978
        -0.280591 0.620123 1.03057
        0.193714 1.34182 0.332529
        0.0120604 0.723273 1.20414
        0.486638 1.24909 -1.02413
        0.63788 1.53748 0.682921
        1.79434 0.870399 -0.00662336
        -0.071462 0.387233 0.2934
        1.55883 1.24626 0.199953
        -0.168741 1.39126 0.902169
        -0.70456 1.00349 1.02113
        -0.26583 0.620739 0.143664
        -0.191472 1.14238 -0.733672
        -0.356065 1.78401 -0.403833
        0.412187 0.115803 0.400012
        -0.329887 2.37857 -1.49639
        0.0935548 1.92591 0.535337
        0.901051 1.84906 -0.559301
        0.436874 1.49717 0.662557
        -0.174521 1.66128 -0.188131
        -0.479487 1.92539 0.524912
        0.394851 1.68674 -1.14256
        -0.201421 1.56713 0.220618
        0.902059 1.4849 0.791271
        -0.576371 1.82312 -0.354487
        -0.641688 2.94895 -0.212013
        -1.98349 0.162491 -0.250531
        0.778785 1.53798 -0.488026
        0.845232 2.20744 0.0748615
        -0.0777965 0.662429 -0.546787
        -0.131286 -0.604654 1.60814
        1.43882 0.974857 -0.336188
        -0.567446 -0.361951 -0.206826
        0.569423 2.64153 1.04511
        0.288959 2.02298 1.72095
        0.710252 1.43925 -0.568319
        -1.02733 0.706895 -0.131062
        2.11794 2.12394 0.438157
        0.00433787 1.34437 0.189359
        0.551503 0.839604 1.02944
        -1.07526 0.713114 -0.931155
        0.0505273 1.00798 0.152587
        0.741274 1.35466 0.308768
        0.288085 1.74353 -0.0834704
        -0.109853 2.64311 -1.21256
        1.16746 1.61494 0.401617
        -0.491306 0.575183 -0.050433
        -1.24814 1.06042 -0.414196
        -1.42038 1.60123 0.121707
        -0.764103 0.894144 -1.17278
        0.782073 -0.158246 -0.464841
        -0.44802 1.0661 -0.944718
        -0.150387 1.54674 1.2003
        0.287124 -0.24267 1.15287
        0.426463 0.901317 0.76065
        -0.972465 0.57346 0.946562
        0.540736 2.3182 0.790757
        -0.528629 1.69277 1.57495
        0.716653 0.981586 -0.300584
        -0.233503 2.08122 -0.297315
        0.982107 1.80395 0.915316
        0.296204 1.95281 -0.779603
        -0.0973543 2.1191 -0.0179023
        -0.115151 2.03868 0.417237
        -0.565639 1.37404 -0.358
        0.495835 0.958541 -0.714938
        1.23989 1.96554 0.890329
        -0.1759 1.59406 -1.00136
        0.0437834 1.51369 0.919771
        0.423962 1.66439 0.035431
        0.844106 1.37341 -0.946403
        0.283221 1.42047 -0.870471
        0.310734 1.44671 0.180667
        0.498098 0.868756 -0.602073
        -0.171865 2.37955 -0.620097
        -0.226873 1.41027 0.872762
        -0.147913 2.43699 -0.563806
        -0.294787 1.7428 -1.34723
        1.3869 0.787566 0.0393857
        0.52939 0.625597 -0.71844
        1.28534 2.046 0.796274
        0.589558 0.60095 -0.118628
        0.152853 1.45721 0.239207
        0.511764 0.982537 -0.204778
        -0.0874263 0.870332 0.509569
        0.509596 0.0470589 0.267865
        0.487229 2.54463 0.204077
        -0.164615 1.81594 0.0232109
        -0.118733 0.919517 -0.157671
        0.493221 0.4659 0.882267
        0.152659 0.979952 -0.0523876
        -0.78589 0.92757 1.13983
        1.45342 1.39077 -0.271894
        -0.442114 0.790466 0.608155
        0.572824 2.17717 -0.387731
        -1.17546 1.52469 0.18131
        -0.312307 1.82878 -0.702291
        -1.00455 1.49295 -0.373511
        0.104756 1.03567 -1.60178
        0.265744 0.901101 0.758306
        -0.630898 0.953383 0.403635
        -0.155819 1.07528 -2.2265
        0.295356 1.81219 -0.713666
        0.417739 0.250452 0.410732
        -0.666526 1.91358 -0.481817
        -0.1421 1.42115 -1.15229
        0.0572901 1.09889 -0.388428
        0.465648 1.33064 -0.410508
        -0.304635 2.96706 -0.187124
        -0.633959 0.031305 1.23487
        -0.102662 0.370875 -0.427313
        -1.11871 1.62469 0.659674
        -0.0413079 0.829132 -0.942712
        -0.369 0.500288 -1.23246
        -0.669915 1.16232 0.0426225
        -0.0148374 2.31386 0.528015
        -1.29136 1.45613 0.701413
        1.14474 2.5736 -0.879198
        -0.0815732 2.03188 -0.581692
        -0.0764535 1.11458 1.40742
        0.179286 0.619175 -1.66778
        -0.461984 1.49299 -1.09356
        0.398083 1.88726 1.05103
        -0.230925 0.415722 0.366191
        -0.0882754 1.97014 -0.619706
        -0.694333 2.17242 -0.548709
        0.246784 2.10612 0.36037
        0.586981 1.23947 0.358121
        0.489115 1.93928 -0.711569
        -0.666734 1.93248 0.0356848
        0.556001 2.55 -0.86746
        -0.0365225 1.52321 0.538673
        -0.230614 1.34659 0.746544
        0.187241 0.123157 -1.10319
        -0.106561 1.19073 -0.432288
        0.829899 1.84255 0.332402
        1.03771 1.43424 0.979903
        0.498584 0.332627 1.04963
        -0.345865 0.520576 0.904752
        -0.444678 1.80393 -0.177736
        0.307916 1.07256 -1.03949
        -0.463006 0.917702 -0.891155
        0.142269 0.642945 1.03079
        0.867561 1.12639 -1.6767
        0.112756 1.12279 0.534263
        -0.87948 0.848936 -0.696897
        0.506321 1.20535 -0.434855
        -0.642203 1.67163 0.104656
        -1.24082 0.954037 0.827879
        0.0875275 1.88577 -0.867392
        -0.579706 1.00947 0.254089
        -0.0457535 2.08084 0.622436
        0.412376 -0.356095 -0.342923
        -0.693992 -0.473407 0.794196
        0.857567 -0.0284338 0.383648
        -0.407204 0.756608 0.718593
        -0.952389 -0.0469984 -0.890452
        -0.426101 0.960894 0.304552
        -1.54779 1.64855 0.331847
        0.813524 0.359309 -0.237021
        -0.147484 0.973422 -0.630857
        -0.158319 0.694801 -0.774623
        0.733462 0.903354 -0.260922
        0.100286 1.34636 -1.17137
        -0.561682 0.439561 0.605721
        -1.12728 1.32583 -0.0138331
        -0.228533 1.24237 1.61446
        -0.817171 1.16672 0.649952
        0.794275 1.24135 0.113113
        -0.588079 1.0894 0.374808
        -1.04972 1.60767 1.25163
        0.854548 1.39102 0.434054
        -0.13998 1.24744 -0.15389
        -0.710534 1.35351 -1.06533
        -0.815605 1.4508 0.207967
        -0.620022 0.124748 -0.409225
        0.559254 1.16148 -2.53827
        -0.329661 1.32503 0.243507
        1.16624 0.417479 0.383024
        -0.481649 0.447584 -0.297772
        -1.30783 2.0024 -0.119646
        0.101735 -1.81649 -0.537235
        -0.36521 -0.459172 -0.112449
        0.378504 -2.10718 -0.550104
        -0.17559 -1.46365 1.05093
        -0.425478 -2.63169 -0.532197
        0.295202 -2.37563 0.612339
        0.320754 -1.97418 0.460421
        0.0133175 -1.16111 -1.09844
        -1.07265 -0.557932 -0.162347
        0.953902 -1.62347 -0.185311
        1.04618 -1.49046 -0.484991
        0.94578 -0.566928 -0.509843
        -0.617178 -1.90713 -1.258
        -0.667828 -1.37161 -0.561128
        0.559884 -2.40264 0.46336
        0.138097 -0.738816 -0.189065
        1.01754 -1.85912 -0.282229
        -1.18894 -2.18655 -0.103623
        0.830835 -0.0955676 1.20649
        -1.37865 -1.7057 0.114306
        -0.942221 -0.871752 -0.115281
        -0.114948 -1.25188 -0.526795
        -0.577203 -0.517241 -0.101799
        -0.286495 -1.43267 -0.827331
        -0.120907 -2.67108 -0.607146
        0.770208 -1.01465 -0.735522
        -0.0716276 -0.112219 -0.143782
        -0.422941 -1.13855 -0.0059849
        -0.27074 -1.24311 0.0269767
        -0.812001 -1.48474 -0.762812
        0.508352 -3.20719 0.29688
        -0.364904 -1.1479 -0.20861
        0.602221 -1.31227 0.177839
        -0.881908 -1.30317 -0.45234
        0.149848 -1.25573 0.928993
        1.74338 -2.44659 0.50963
        -0.974866 -2.30915 1.70786
        -0.325856 -1.88391 0.024373
        0.139047 -0.633465 1.26746
        0.108133 -1.27646 -1.12985
        0.408775 -1.47674 -1.57995
        0.13465 -0.575998 0.380328
        0.366513 -2.28927 -0.445801
        1.34366 -0.469185 0.252681
        -0.145448 -0.421003 0.974781
        -1.76161 -1.14284 -1.26436
        0.94189 -1.55002 0.0562822
        -0.439192 -0.195397 0.587237
        -0.441115 -0.815741 -0.109141
        -2.2671 -1.61445 -0.422896
        0.223335 -0.938281 -0.476685
        0.732191 -0.331341 0.437533
        -0.586258 -1.63405 -0.693571
        -0.0506601 -1.83259 -0.454835
        0.353579 -2.39898 0.734447
        0.451284 -1.88927 0.0471403
        -0.689529 -1.36647 -0.273052
        -0.333692 -0.821742 -2.08766
        -0.434741 0.370175 -0.504323
        1.00679 -0.827312 0.1387
        -0.742959 -2.09244 0.985266
        0.0778157 -1.654 -0.840403
        -0.449926 -1.05353 -0.859847
        -0.62414 -1.5735 0.749574
        0.562401 -1.62462 1.13372
        0.41089 -1.69026 -0.0528806
        0.0350938 -0.741037 0.682318
        1.41768 -0.756931 -0.826008
        -0.71039 -1.15562 -0.0208812
        -0.746439 -1.92181 0.405557
        0.164271 0.28045 0.240648
        0.370226 -2.28158 0.0526839
        -0.0539271 -1.50451 -0.819132
        -0.186582 -1.38498 1.25436
        0.160637 -0.550693 0.601468
        -0.823492 -0.89028 -0.482287
        -0.401253 -1.41781 0.661258
        -0.548942 -1.84322 -0.71671
        0.892341 -0.853741 0.137167
        -0.21069 -1.69726 -0.546738
        -0.126028 -0.800416 -0.231695
        0.363519 -0.674898 -0.28858
        0.678247 -0.950475 -0.595418
        0.0286924 -0.470864 0.119246
        1.05218 -2.02888 0.730551
        0.756659 -0.617635 -0.125634
        -0.24687 -1.00432 0.00398649
        -0.841321 -1.45628 -0.0449726
        0.404305 -1.65279 -0.834995
        0.73883 -0.794727 0.512766
        0.929443 -2.74575 -0.656104
        -0.574016 -1.4337 0.477672
        0.907616 -0.305321 0.403607
        0.12961 -1.54516 -0.793297
        0.238091 -0.606896 0.677893
        0.145755 -0.2192 0.705196
        -0.552394 -0.560232 -0.454587
        0.391194 -1.90334 -0.864247
        1.22246 -0.702809 1.3767
        -0.669441 -1.26995 0.216251
        0.127466 -2.81053 -1.01629
        0.7324 -1.48672 -0.390319
        1.25118 -1.03988 -0.636212
        -0.170228 -0.515119 0.468971
        -0.274233 -1.43525 -0.490923
        0.897999 -2.31571 -0.393598
        -0.022472 -0.997352 -1.08
        0.58439 -0.63267 0.152362
        -0.165192 -0.654577 0.681725
        -0.572669 -0.390681 -0.165248
        -0.902317 -0.889139 0.205028
        0.811909 -0.584147 -0.175663
        0.0265972 -1.34662 0.420951
        -1.08405 -0.512335 -0.557461
        -0.342878 -1.90132 -0.755353
        0.024195 -0.237275 -0.0768881
        -0.184346 -1.49634 -1.11763
        0.434429 -1.2198 -0.142284
        -0.215056 -0.730093 -0.681345
        0.616116 -1.02168 0.119266
        -1.01772 -1.16909 0.722808
        -0.178315 -1.72571 0.00492499
        -1.65812 -1.52403 0.447045
        -1.25237 -1.1396 0.10746
        -0.180385 0.266442 -0.174711
        -0.188692 -2.33077 0.417763
        0.455375 -1.42105 -0.829754
        0.225321 -1.33187 -0.219651
        -0.535662 -1.14031 0.662317
        1.60867 0.024096 1.32172
        0.242532 -0.144238 -0.815101
        0.318975 -0.74979 -0.643626
        -0.30058 -1.42964 0.572384
        0.430027 -1.98391 0.0596288
        -0.106166 -1.41548 0.144198
        0.229263 -2.03065 -0.219172
        -0.880214 -2.08777 -0.63015
        1.49069 -2.24336 0.550985
        0.322842 -0.353859 -1.09421
        -0.0675942 -3.66106 -0.792968
        0.910788 -0.142828 -0.665641
        0.808109 -0.650429 2.14257
        -0.510501 -1.56803 -0.195023
        -0.407571 -0.312988 -0.448058
        1.70879 -0.961944 -0.0268249
        -0.212956 -0.791954 -0.657233
        0.197908 0.0144967 0.0954412
        0.493983 -1.78649 -1.2414
        0.0036334 -1.40399 -0.818455
        0.596172 -0.988959 -0.840847
        1.14713 -1.62928 0.235189
        0.777405 -0.896475 -0.652472
        -0.685 -1.55318 -0.0179227
        0.169705 -1.25933 -0.802203
        0.313387 -0.285549 0.109084
        0.984986 -0.913488 0.913713
        -1.00838 -1.42873 0.386321
        1.17213 -2.65881 -1.09895
        -0.0833033 -1.08639 0.352861
        0.869278 -0.0937434 -1.44732
        -0.0738992 -2.11634 0.275815
        -0.376316 -0.73145 0.169988
        0.177352 -1.08148 -0.309141
        -0.038643 -0.390231 0.590405
        -0.471717 -2.52035 -0.448056
        -0.558849 -1.67021 -0.4448
        -0.447725 -1.28451 0.888271
        0.295364 -0.175125 0.486666
        0.0919387 -1.28099 -1.09242
        -0.810104 -0.835295 0.268575
        0.112274 -1.25089 0.602209
        -0.732608 -1.08774 0.527076
        -0.259535 -0.599949 0.507155
        0.0122538 -1.14593 1.03116
        0.0387675 -2.13376 0.306407
        -0.118601 -1.00752 -0.540503
        -1.41287 -0.440359 -1.0156
        -0.343081 -0.869493 1.28669
        -0.333885 -0.598888 -0.24192
        -0.416006 -1.5449 0.751895
        -0.794827 -0.619068 -0.952678
        -0.874651 -0.891364 0.0239769
        -1.87037 -1.13393 0.471792
        -0.817944 -1.91259 1.20519
        -0.478594 -1.39923 -0.172624
        -0.697581 -1.2631 -0.14314
        -0.634837 -1.8774 -0.991036
        0.160271 -0.521862 0.689644
        -0.412282 -1.79894 0.0822969
        0.48755 -1.81769 -0.329041
        -0.35023 -0.751053 1.05623
        -0.699668 -0.160899 1.13866
        -0.15529 1.37458 -0.218859
        -0.256256 0.617473 -0.417659
        0.881387 -0.762978 -0.103135
        0.906891 0.49744 -0.631588
        -0.307007 0.694693 -0.725244
        1.5704 0.265429 1.50491
        1.17403 -0.0962652 1.18128
        -0.589611 0.171571 -0.596509
        -0.636442 0.00597975 -1.01057
        -0.899192 0.299944 0.157933
        -0.315698 1.82443 0.525162
        -0.137821 1.03034 0.921881
        -1.14838 -0.987868 0.886911
        -0.253252 0.557588 -0.0187339
        -0.164315 0.0924973 -0.418894
        0.38713 0.569282 0.384702
        0.0135858 1.21943 -0.283575
        1.00739 1.28852 0.453761
        -0.188478 0.350419 -0.875798
        0.949197 0.439817 0.576467
        -0.229691 0.298463 -0.712953
        1.06377 1.29341 0.738043
        -1.033 1.53485 0.333453
        -0.399852 1.2234 1.19047
        0.311444 0.265513 -0.875835
        -0.0321944 1.45974 -0.500553
        -1.46056 0.27847 -0.962294
        -0.0274626 -0.226609 0.245671
        -0.738072 1.76162 0.965176
        0.837833 -0.33577 -0.283768
        -0.244819 2.18318 0.882606
        -1.12794 1.43544 -0.621719
        0.126661 0.8294 -0.20083
        0.966361 1.92924 -0.749726
        0.05829 0.818987 0.582035
        -0.62282 -0.419721 0.180191
        0.64121 1.26973 0.917094
        -1.09509 1.73993 -0.506346
        -0.408027 1.97792 0.58412
        -0.43874 1.58854 -0.281191
        -0.485886 1.27073 0.82452
        0.538307 1.11466 0.703827
        -0.727886 1.13205 0.159951
        -0.123155 1.55641 0.748112
        -0.140712 2.21882 -0.561749
        1.02275 1.95446 0.88744
        -2.35902 0.955402 -0.137563
        -0.102872 0.85802 -0.473254
        0.627505 1.05609 0.606095
        0.875549 1.72244 -0.116652
        -0.436995 2.33448 -0.0210073
        0.271036 1.50905 0.873841
        0.604067 1.70878 -0.0702061
        1.51269 0.679599 0.407702
        0.679427 1.60326 -0.0603214
        -0.197031 0.711328 0.151888
        0.53217 1.48517 0.197529
        -0.433986 2.17877 -0.872867
        0.182611 0.263565 0.468675
        -1.89491 1.78413 0.904122
        1.22055 1.60204 -0.657788
        -0.0507669 0.350652 -0.502974
        -0.16519 1.59714 0.732126
        -1.24235 1.90162 -0.0373638
        -0.14497 1.29348 0.269293
        0.160621 1.70692 0.183657
        -0.74432 0.391701 -1.24272
        0.209426 1.00727 -0.142172
        0.709267 2.15222 -0.184433
        0.573289 1.01482 -0.138408
        0.0262284 2.37083 0.359396
        0.341382 1.01199 0.623269
        0.241604 1.71135 1.3894
        -0.534069 1.48438 -0.468276
        0.770538 -0.251273 0.399543
        -0.99831 1.24592 -0.366274
        -0.656097 1.4405 0.20706
        -0.0921634 2.61069 0.948787
        -0.15717 1.03352 1.44369
        -0.495654 -0.467933 0.314319
        0.989778 2.15486 -0.479161
        -0.328509 1.65325 -0.052797
        -1.35273 1.49084 1.32985
        0.0932762 1.0023 1.19136
        -0.163478 0.675142 -0.512443
        -0.15604 2.37077 -0.0790155
        0.159412 1.13491 -0.29399
        -1.15543 0.940925 1.13143
        -0.250866 1.76901 0.670121
        -0.361697 2.35458 -1.15332
        -0.368252 0.847638 -0.604485
        0.606267 1.4885 -0.270101
        0.602695 1.02612 0.711739
        -0.473633 0.453773 1.40224
        0.85211 1.14259 -0.306808
        -0.338438 -0.966486 0.99714
        0.937947 2.98111 0.766614
        0.303425 1.42225 -0.544545
        -0.650103 1.49863 -0.638413
        -0.557887 1.67427 -1.03126
        0.227153 2.44321 0.0324701
        -0.690372 0.990637 1.16891
        -0.296932 2.05446 0.299949
        -1.35396 2.65011 0.362356
        -1.04829 1.10815 0.880563
        0.21529 1.71878 -1.07817
        -0.560878 2.4895 0.306412
        -0.604578 1.90958 0.560441
        0.18718 1.75017 -0.213252
        0.663043 2.09836 1.24744
        -0.624422 0.73805 -1.14816
        0.424491 0.930611 -0.287021
        -0.139709 1.49242 0.815877
        0.475675 1.53365 0.127266
        0.181902 2.31593 0.323557
        -0.142815 0.247281 0.452641
        -0.453866 0.332362 0.661529
        -0.562153 2.48468 0.852318
        -1.07867 2.08489 -0.235095
        -0.507226 1.84104 0.182328
        -0.682128 1.01404 0.0970531
        0.489046 0.865201 0.119049
        -0.882922 1.70898 0.216215
        -0.444165 0.229841 0.272358
        -0.644473 1.79691 0.989025
        -1.11157 1.56506 -0.977097
        1.05177 2.45596 -0.00343752
        -1.95842 1.3594 -0.207589
        -0.205631 1.25959 0.470295
        -0.721161 0.985911 0.0971655
        0.77742 1.26854 0.059806
        0.276118 1.54896 0.936019
        1.42865 1.51993 -0.701495
        -0.527874 1.10753 1.25674
        -0.056302 1.09751 0.206785
        0.97708 1.19501 -1.67149
        -0.0372701 0.709917 -0.832647
        0.743103 2.36923 -0.911002
        -0.0311347 2.28214 -1.02888
        -0.0349754 1.62909 -0.45824
        -0.046455 1.22191 -1.42575
        -1.76676 2.10164 -1.19632
        0.674904 2.18752 -0.59651
        0.686373 1.12455 -0.251072
        0.399077 1.20778 0.337216
        0.883312 -0.363016 -0.468162
        -0.28821 0.956473 -0.398124
        0.408604 1.83355 0.546932
        1.29259 3.83495 -0.310599
        0.777142 0.249031 -0.606168
        0.23517 0.927004 -0.296081
        -0.931675 1.35201 0.390927
        -1.01978 1.21651 0.675256
        0.489232 1.21716 -0.428641
        -1.00096 1.84857 -0.07798
        0.35787 1.3653 0.613709
        -0.251725 1.58363 -0.816026
        1.22481 2.40711 0.0922961
        -0.522755 0.974317 0.00281582
        0.196448 0.562277 0.126712
        0.012097 1.5566 0.361532
        0.649873 0.201013 0.643751
        -0.0158306 1.68457 0.984233
        1.00317 2.52951 -0.46239
        0.176006 0.759224 0.155057
        -0.448567 1.31583 -0.19327
        -0.455427 1.78733 0.136562
        -0.843866 1.93132 -1.12407
        0.526921 1.39708 -1.24396
        0.831885 1.10955 0.447265
        -0.131369 1.25201 0.709952
        0.112064 1.64008 -0.86284
        -0.962928 -2.19821 -0.411484
        -0.785266 -0.781257 0.277132
        0.939624 0.0496385 0.344066
        -0.0660965 -1.97459 -0.321042
        -0.0512769 -2.27615 0.978512
        0.518424 -2.28157 0.707873
        -0.716949 -1.01712 -1.83168
        1.22097 -1.00932 0.130599
        -0.431154 -0.984 -0.0854651
        0.336651 -2.12922 0.491405
        1.066 -1.17913 0.139525
        0.852159 -0.791693 0.68907
        0.0233191 -1.70573 0.586472
        -0.717689 -1.59165 -0.00235207
        0.410904 -1.16443 -0.482713
        -0.72383 -1.2182 0.651567
        0.0527041 -0.978234 -0.406933
        -0.118584 -1.3386 -0.149424
        -0.460225 -1.60526 0.545459
        -0.597772 -1.78785 -0.240096
        -0.00217558 -2.05527 1.32544
        0.535071 -1.90768 -0.660488
        -1.33793 -2.42738 0.0262951
        1.08583 -0.734811 -0.825258
        -1.32223 -1.54953 -0.381682
        1.13744 -1.07523 0.013171
        0.270845 -1.45421 0.153474
        -1.04697 -2.05978 -0.137431
        -1.28999 -0.540877 -1.08535
        0.771041 -1.23808 -0.661021
        0.128971 -0.857534 -0.310487
        -0.410097 -1.02555 -0.783136
        -0.489266 -2.23821 0.517162
        -0.404601 -0.534592 -0.975968
        -1.58247 -0.794658 1.05369
        0.261308 -0.90891 -0.428645
        2.25999 -0.827023 0.294136
        0.755097 -1.60942 0.132955
        0.600812 -0.812139 -1.3341
        1.06453 -1.09833 -0.154791
        -0.695925 -0.736963 0.369883
        0.287191 -0.755155 -0.485346
        0.816991 -1.61908 0.649399
        0.611934 -1.24298 -1.02537
        -0.109205 -1.45447 0.0100492
        -0.309846 -1.32054 -0.198015
        -0.987188 -2.32654 0.288149
        -0.472801 -1.82525 0.173926
        -0.0617556 -2.34297 0.553001
        -0.463322 -2.27534 0.118896
        0.852348 -0.833071 0.612492
        0.153171 -2.23059 -0.0337981
        0.394807 -1.48929 1.74366
        0.621882 -1.87984 0.288647
        0.431925 -1.91037 0.601126
        0.837433 -1.73759 -0.227365
        0.502095 -0.74992 0.284032
        -0.0133218 -1.39591 0.0285466
        -0.495763 -0.948365 -0.332409
        -0.0182434 -0.547435 0.199902
        0.471174 -1.16944 0.574698
        0.790088 -1.89137 0.79164
        -1.22134 -0.753537 -0.0697514
        0.944989 -1.23762 -0.203866
        0.203963 -0.915128 0.101903
        -0.0247734 -0.23078 -0.605957
        0.483202 -0.485527 0.574957
        -0.374447 -1.40785 -0.0953273
        0.0650247 -1.92012 -1.18177
        0.0662273 -2.29612 -0.386808
        0.611634 -1.67274 -0.425969
        -0.127499 -0.148633 0.517975
        0.245801 -0.185649 -0.488978
        -0.207831 -0.669477 -0.545868
        1.05407 -1.36982 0.734016
        -1.03296 -1.68252 -1.83972
        -0.318237 -0.993094 0.169772
        -0.760452 -0.927032 -0.180607
        0.0532518 -1.73217 -0.744004
        -0.074322 -1.05075 0.154164
        -0.30706 -2.49969 0.654968
        0.887933 -0.53154 0.130699
        0.689035 -1.81679 0.354965
        -0.104994 -1.32023 0.285337
        0.666247 -2.88715 0.525457
        -0.114645 -2.45302 -0.709078
        0.174998 -1.71963 0.687208
        -0.418156 -2.6952 0.417818
        0.664439 -0.792994 0.253256
        0.410119 -0.687025 0.338371
        0.339644 -1.62943 -2.38757
        0.553105 -2.1393 -0.143854
        0.520146 -1.70191 -0.217511