<?xml version="1.0" encoding="UTF-8" standalone="no" ?>
<VTKFile byte_order="LittleEndian" type="UnstructuredGrid" version="0.1">
  <UnstructuredGrid>
    <Piece NumberOfCells="0" NumberOfPoints="1764">
      <PointData>
        <DataArray Name="velocities" NumberOfComponents="3" format="ascii" type="Float32">
        -0.644844 -1.83906 -0.661123
        -0.344946 -2.08198 -0.883374
        0.901969 -1.73639 0.830282
        -0.614267 -0.796782 -0.0826391
        -0.234186 -1.78764 -0.464708
        0.277604 -0.153647 0.827985
        0.834103 -0.927319 -0.548567
        0.537527 -1.21521 -0.674124
        -0.325885 -1.29815 0.140865
        0.732088 -1.32366 0.832689
        0.549006 -0.929993 -0.207084
        0.860447 -2.03385 0.0651233
        -0.220069 -1.71112 0.713232
        0.75858 -2.06623 -0.131744
        0.869362 -0.763719 -0.734612
        0.175374 -0.219365 -0.0969458
        0.605725 -0.855305 0.734698
        0.680819 -1.77396 -0.882483
        0.0306978 -1.7104 0.397629
        1.32986 -1.98745 0.770898
        -0.0270868 -1.33495 0.253714
        -0.885268 -2.82651 0.0970513
        -0.703917 -1.54432 -0.33126
        -0.0379295 -0.808726 0.309079
        -0.612992 -1.62446 -0.149403
        0.426375 0.336244 -1.1414
        0.128195 -0.0875012 -0.545005
        0.455682 -2.19799 -0.32446
        0.125804 -2.12076 -0.513086
        -0.476274 -0.302008 -1.06815
        -0.189741 -1.18448 -0.0873948
        -0.917017 -1.26458 0.417466
        0.4119 -2.25971 -0.0517164
        -0.992532 -1.55943 -1.17167
        -0.0721265 -1.09365 -0.742679
        1.03867 -2.32082 0.122702
        0.831074 -1.26294 -0.574233
        -1.22021 -2.29867 0.372556
        -0.28524 -0.36104 1.14403
        -0.242074 -0.972413 0.0531114
        -0.0710439 -1.06215 -1.06152
        -0.129373 -1.67464 0.88706
        0.048635 -1.07754 0.995368
        -0.556544 -1.22788 1.08252
        0.421639 -1.94961 1.01763
        1.16987 -2.40043 0.428458
        -0.181939 -1.43926 0.0377182
        -0.197894 -1.68018 0.327751
        0.396704 -1.83366 0.591456
        0.49161 -1.60915 0.11255
        0.493835 -1.65294 -0.593984
        -0.836132 -0.951244 1.46219
        -0.183094 -1.11567 0.0248486
        -0.0174329 -0.486392 0.465462
        -0.168633 -0.467255 -0.174387
        0.386697 -2.59501 -0.908963
        0.222222 -1.11203 -0.3056
        0.856813 -2.55481 -0.226254
        0.894066 -0.456929 0.132466
        -0.0617222 -1.24652 0.434412
        0.228656 -1.293 -0.262708
        -0.72566 -2.00733 0.526856
        -1.09408 -0.299873 1.15832
        -0.262904 -1.1742 -0.534116
        -0.100341 -1.77046 0.110833
        0.68668 -1.68887 -1.26238
        -0.258151 -0.356292 -1.64439
        0.145543 -2.56107 0.650011
        -0.302567 -0.687989 -0.206421
        0.277999 -1.22566 -0.491859
        0.652618 -0.309064 0.72894
        0.579385 -0.374988 -0.462485
        0.28367 -2.89302 0.259473
        0.489002 -1.6206 0.206741
        0.390966 -0.128774 2.41826
        -0.000698026 -1.54816 0.132779
        -0.421387 -1.74349 -1.07113
        -1.07747 -1.07 0.312042
        0.561258 -1.3752 0.467066
        0.233115 -0.980476 0.0513766
        -0.365707 -0.854508 0.319101
        -0.788282 -1.27483 1.33379
        0.589347 -1.48875 -0.720987
        -0.0811123 -0.963959 0.283723
        0.502482 -0.612751 -0.603458
        -0.470174 -2.23422 -0.204789
        -0.709186 -1.17017 0.539637
        0.476162 -0.533907 -1.48658
        1.55943 -1.50083 -0.135637
        0.750898 -0.887714 0.762666
        -0.497188 -0.0259169 -0.29946
        1.38795 -0.145605 -0.695695
        0.141936 -0.707366 0.217862
        1.16317 -1.14784 -1.31763
        0.202618 -1.31742 0.239696
        -1.51465 -0.866245 -0.698141
        -0.035538 -1.72737 -0.39776
        0.356159 -0.550023 -0.337346
        -0.565283 -1.7495 -1.39487
        0.597941 -1.39963 0.799102
        0.461586 -1.75573 -1.02514
        0.731856 -1.0714 0.852192
        -0.733048 0.0505428 1.63428
        0.657933 -0.845561 0.369212
        0.0679787 -1.22129 0.115886
        -0.287632 -1.93556 -1.67097
        -0.0884544 -0.69128 -0.665825
        -0.665567 -2.12321 -0.43694
        -0.342293 -1.25305 -0.000651722
        -0.830241 -1.38831 0.857496
        0.302847 -1.04061 -0.592335
        0.543324 -0.775105 0.00206993
        -0.742698 -2.09108 -0.502292
        -0.0327856 -1.48284 -0.239166
        0.483522 -2.19652 -0.471106
        -0.322565 -0.553977 0.858471
        1.11148 -1.26506 -0.307592
        -0.186164 -1.33555 -0.45188
        1.16179 -1.1386 0.684804
        -0.632958 -1.49045 0.897947
        0.00935627 -1.30643 -0.201042
        0.474159 -1.7192 0.494052
        -0.257471 -0.661021 -0.324625
        1.04236 -2.62387 -0.256308
        0.00974813 0.0360636 0.0776091
        -0.362696 -0.0813965 1.03657
        0.527326 -0.932691 0.371171
        -0.753111 -1.62914 0.333581
        -0.223431 -0.696057 -1.06214
        0.991145 -1.01582 0.27297
        -1.35202 -0.97227 0.209207
        -0.55698 0.455173 0.532954
        0.114499 -1.88933 -0.703305
        -0.65557 -1.22543 1.02409
        -0.27224 0.0585274 0.386574
        0.823553 -2.0901 1.06295
        -0.562173 -0.96428 -0.0121255
        -0.42117 -1.26822 1.1241
        -1.33492 -1.76138 0.637053
        -0.292323 -0.641123 -0.624723
        -1.71221 -1.49575 0.0149549
        -0.392063 -1.61089 0.0086489
        0.200664 -0.27075 -0.817443
        0.665543 -2.28313 0.295868
        -0.825141 -0.384843 -0.644073
        -0.0749024 -0.848934 0.28266
        -1.37089 -1.09519 0.22256
        0.0507144 -0.177352 -0.550931
        -0.727364 -0.715847 -0.41544
        -0.21694 -1.53954 -1.67372
        -0.349959 0.12267 -0.835564
        -1.07458 -0.941666 -1.00845
        0.494558 -1.20743 0.0896332
        -0.467533 -2.0207 -0.12722
        -0.523255 -0.796148 0.506476
        -0.750855 -0.7931 0.0248445
        0.520115 -0.183542 -1.01982
        0.714689 -1.67123 0.199368
        -0.705318 0.0157674 0.497078
        -0.700222 0.216613 -0.180313
        -0.757619 0.472356 0.862879
        -0.185468 -0.335137 -0.0882918
        -0.688001 -0.110645 -1.5742
        -1.11217 0.372356 -0.310192
        0.498119 -0.516924 0.602529
        -0.673585 -0.872757 -0.258989
        -1.10447 -0.0110324 -0.94062
        0.616682 -2.20125 -0.0304708
        -0.224819 -0.534601 0.422713
        -0.512417 -0.26715 1.03797
        -0.830103 -0.522477 0.210098
        0.637287 -1.4995 -0.0884128
        1.21121 -1.31186 1.17991
        1.26924 -1.04718 -0.833635
        0.0504217 -1.67758 -0.272737
        -0.127841 -1.0454 -0.595478
        -1.72289 -0.774216 -0.430174
        -1.87026 -1.53375 -0.381234
        -1.10745 -0.106937 -0.128862
        -1.47353 -0.0489815 2.6269
        0.368199 -1.0418 2.78207
        1.06369 0.219507 -0.039289
        0.396158 0.871328 -0.6821
        -0.442228 0.741334 0.530991
        0.475775 -0.209836 0.858416
        -0.157664 -0.620151 -0.883556
        0.461891 -0.506983 -0.382541
        -0.399923 0.364414 -0.456529
        0.636612 -0.208132 -0.86854
        0.0074292 0.514631 0.476191
        -0.490141 1.57572 -0.407384
        0.0600323 -0.261341 0.950383
        0.398521 0.61072 0.53643
        0.183208 0.733456 0.0989472
        -0.28807 1.111 0.858676
        -0.140709 1.21992 -0.107227
        -0.500735 0.330573 0.503719
        1.64091 0.856744 0.112431
        -1.2336 2.08223 0.42616
        -0.517695 0.897927 -0.450728
        -0.373567 1.63023 0.0527532
        -0.209132 0.953774 0.285312
        0.773153 1.21286 0.45946
        0.351121 1.52594 0.736807
        -1.09091 1.68623 -0.275656
        -1.18785 0.274727 -0.455972
        -0.315318 0.646086 0.58444
        -0.246033 0.786634 0.643556
        -0.718871 0.814965 -0.139557
        0.75387 1.17635 0.802066
        0.78387 2.82748 -0.00870854
        0.0880328 1.92374 -0.586196
        0.147124 1.44308 0.953336
        1.13986 2.57896 0.782082
        0.144673 2.13936 -0.480327
        0.675007 1.67053 0.584042
        0.351032 0.59252 -0.272328
        0.678533 1.09301 0.463173
        -0.487563 1.53414 -0.497482
        -1.24194 2.53266 -0.149222
        0.366656 0.0873566 0.113221
        -0.3461 0.942224 -0.578143
        0.589243 2.87242 0.683338
        0.32175 0.35995 0.970111
        -0.190314 1.8075 0.213616
        -1.13788 0.862365 -0.460364
        -1.87593 1.08114 -0.699235
        0.594001 1.16943 -0.155662
        -0.108648 0.898535 -0.92335
        0.0313308 1.83977 -0.817659
        0.562875 0.947696 0.257291
        0.765766 1.54703 -0.104133
        0.570746 1.53878 0.544703
        -0.0994823 1.62 -0.24311
        -0.342011 1.49102 0.175957
        -0.354183 1.1165 -1.1588
        0.445756 1.4864 0.367113
        0.281781 2.29183 -0.38189
        0.0587523 1.13149 -0.38103
        -0.749701 0.227259 -0.468975
        0.635123 1.29421 0.598426
        0.807114 0.857208 -0.365055
        -0.703551 0.157594 -0.517814
        -0.727387 1.48864 -1.05732
        0.160425 1.58905 -0.00478957
        0.15122 2.49161 -0.268537
        -1.9035 0.791907 -0.104802
        -1.27159 1.30792 1.3722
        0.97198 1.67268 -0.370987
        1.43991 1.85158 -1.08913
        1.11318 2.10563 -0.256603
        -0.445758 1.91055 -1.14575
        0.413196 1.18997 0.863682
        -0.230248 1.52247 -0.247103
        0.331363 1.59812 1.02307
        0.324738 2.0177 -0.136713
        0.164332 1.09197 0.224523
        0.444861 1.70617 -0.875417
        -0.583024 1.62484 -1.31163
        -0.081939 0.65778 0.075212
        0.403432 1.40643 -0.633088
        -1.142 2.39251 -0.585206
        -0.708022 0.151808 -0.155721
        0.269819 0.0265444 1.12376
        -1.46698 1.15055 0.562173
        -0.660198 1.46687 0.429706
        -0.837308 0.419258 0.0342488
        0.162335 1.64245 -0.291861
        0.852552 1.11459 0.820393
        -0.462125 1.06972 -0.600431
        -0.0360511 0.828369 0.855483
        0.378533 1.20021 -0.0134316
        -0.0352909 0.49046 0.542017
        0.646543 1.31907 0.775104
        -0.429368 2.57188 0.127213
        -0.461552 1.78304 -0.113216
        0.571079 1.19019 -0.488547
        -0.926136 0.0266464 -0.441357
        -0.348936 1.26889 -0.931091
        1.80633 0.996729 0.618303
        -1.03161 -0.396936 0.466371
        0.467201 2.04016 0.367734
        -0.634448 2.1237 -0.858323
        0.632138 2.24458 0.372515
        -0.459674 0.33983 -1.52883
        0.970703 2.52453 0.310208
        0.489808 0.821937 0.366439
        -0.0519148 2.22979 -0.075965
        0.351919 0.608681 0.172257
        0.465369 0.70896 0.307274
        0.141794 1.05072 0.52618
        -0.325109 -0.0749523 0.632389
        0.56542 1.07628 0.293647
        0.424329 2.22261 0.724122
        -0.266204 0.257238 -0.0200408
        0.175802 0.968549 0.38509
        0.62939 1.7829 -0.234719
        0.0620148 0.967531 0.895393
        -0.287967 2.47916 -0.485835
        -0.938964 1.67339 0.522395
        -1.36212 1.02641 0.100505
        0.128755 0.858197 -0.499328
        1.6517 2.05685 1.34068
        -0.351691 1.2328 -0.495353
        -0.491171 1.68425 -1.34838
        -1.71144 2.49745 0.92267
        -0.319354 1.32503 0.100889
        0.0821187 2.16565 0.0980883
        -0.944246 0.916822 0.32168
        -0.61912 2.29964 -0.0976029
        -1.19934 0.803979 0.46582
        -0.867953 1.08815 0.478739
        0.260158 1.61802 -0.447515
        0.2782 0.706007 -0.0439348
        -0.0668993 2.60469 0.14467
        -0.486569 1.96887 0.619873
        -0.872806 -0.0638085 -0.0104352
        -0.582481 0.802653 0.295684
        0.346758 0.557719 0.331407
        0.4364 1.42777 0.369126
        0.337574 1.19754 -0.438974
        -0.463534 0.510507 -0.150763
        0.661131 1.18946 0.255276
        -0.290431 1.01111 0.0152924
        0.159028 1.98697 -0.733897
        0.480971 2.31593 -0.98329
        0.698426 2.25999 0.619457
        -0.538327 2.449 0.0996903
        -0.399189 1.00794 0.382477
        -0.037099 0.864181 -1.29975
        -0.467712 1.24524 0.544102
        -1.45301 0.915171 0.277306
        -0.115807 0.948651 0.788791
        0.732427 1.03506 0.565363
        0.641777 1.43124 -1.00672
        0.177519 1.60358 -0.311248
        -2.16972 0.772131 0.209712
        -0.407712 0.43619 1.57011
        -0.0876131 1.82466 -0.627001
        0.123357 2.17883 -0.24996
        0.609097 2.67858 -0.17066
        -0.282703 0.798795 0.811652
        -0.374803 0.675458 0.117516
        -0.101646 1.76802 0.38682
        0.157909 2.38958 0.452008
        -0.197581 1.19983 -1.59547
        0.692534 0.419829 -0.166781
        -0.901654 1.51855 -0.0394315
        -0.159469 0.594649 -0.0856864
        0.717781 1.5298 -0.266995
        -0.801216 1.21169 0.0730856
        -0.685727 0.331245 1.46975
        -0.461531 2.23117 0.936374
        -0.641056 1.23664 -0.200493
        0.711941 2.16276 0.72591
        -1.0701 0.531805 -0.837302
        1.22885 2.80244 0.864379
        0.245955 2.83501 -0.660157
        0.556358 2.06594 -0.425312
        -0.235657 0.26827 0.180641
        -0.737186 0.704022 -0.126925
        0.520935 0.834297 -1.03459
        -0.104827 1.47235 0.447613
        -0.603293 0.81786 -0.851457
        0.585133 0.90663 -0.387331
        0.0541238 1.37936 -1.36729
        0.434807 1.68504 0.924468
        1.02251 1.00449 -0.130765
        0.596846 1.45318 -0.486176
        -0.194879 1.69884 -0.659203
        0.706057 1.9754 -0.866761
        0.174122 -0.907942 0.57479
        -0.913779 -0.423905 0.311392
        0.100676 -1.09159 -0.680295
        -0.208714 -0.830327 -0.351745
        0.52083 -1.74088 -1.97147
        2.05623 -1.56006 -0.90606
        -0.501677 -0.168834 -0.259999
        1.01885 -0.653109 0.413445
        -1.09546 -3.36664 -0.784526
        -0.774241 -0.337738 -0.983521
        -0.445523 -0.601656 -0.721515
        0.733897 -2.16984 1.06458
        0.411535 -2.92586 -0.281143
        0.6633 -1.22028 0.611963
        -0.585707 -1.24608 0.601793
        -0.379604 -1.73866 -1.23741
        0.332545 -1.75649 -0.579944
        0.194984 -1.16134 -0.751029
        -0.951793 -2.37611 0.104884
        0.251039 -1.43329 0.271749
        0.869464 -0.881294 -1.01155
        1.08381 -1.66346 -1.2746
        0.576173 -0.948538 1.69286
        1.10282 -0.891656 1.06946
        -0.887768 -0.879636 -0.0349513
        1.1546 -0.902746 -0.785547
        0.718739 -0.624199 0.207844
        0.687909 -0.949815 -0.775656
        0.895719 -0.888694 0.66966
        0.085007 -1.09071 -0.732153
        0.0107991 -2.40742 -0.134946
        0.160591 0.474533 -0.532485
        0.814569 -1.04488 -0.522905
        -0.00129627 -2.04425 0.0819914
        0.97307 -1.63311 -1.67051
        0.0442372 -1.83315 -0.304345
        -1.04083 -1.29064 1.14199
        0.0817393 -1.42922 0.717329
        -0.3323 -2.41939 -0.0430863
        1.08638 -1.43558 -0.119043
        -0.382306 -1.68765 0.0163413
        0.136243 -1.03309 -0.82037
        -1.61435 -0.577487 0.378738
        -0.164092 -1.45402 0.565325
        0.31285 -1.13993 -0.334664
        0.0569404 -1.037 0.457537
        -0.207581 -2.036 -1.27878
        -0.257813 -2.02878 0.64526
        -0.194801 -0.14996 -0.312324
        -0.992698 -1.24613 0.11262
        0.0628652 -1.6873 0.8021
        1.78928 -1.08902 0.308199
        -0.949394 -0.426377 0.139623
        1.05528 -0.306337 -0.962241
        -1.34121 -0.667839 -0.656947
        0.230992 -0.603749 0.45709
        0.225273 -0.889928 0.469733
        -1.6736 -2.09716 0.0565074
        -0.175556 -0.155913 -0.365884
        -0.157749 -1.31988 0.562878
        -0.303319 -2.12439 -0.637141
        -0.0792848 -0.690006 0.203482
        -0.703998 -1.443 -0.300008
        0.0928222 -2.30432 0.295492
        -1.38598 -2.40166 -0.491011
        0.826041 -0.744958 -0.00439939
        -0.400196 -0.518701 -0.419593
        -1.10992 -0.537664 1.70975
        -0.00514115 -1.2523 -0.192175
        -0.536062 -1.51725 -0.0775739
        -0.761901 -2.14327 -0.596115
        -0.667688 -2.54632 1.44241
        -0.29174 -0.262164 0.19067
        -0.671976 -1.45433 -0.669854
        0.309097 -1.03826 0.80143
        0.690635 -0.972752 0.417543
        0.017432 -0.398168 -0.416334
        -0.680026 -1.75274 0.307587
        0.765834 -0.28046 -1.12731
        -1.63279 0.0575707 -0.171644
        -1.65113 -1.42692 0.594191
        0.97883 -1.89098 0.403697
        0.258003 -1.96951 -0.312484
        -0.388841 -1.31992 1.04138
        0.231571 -1.23241 0.896897
        0.869188 -1.91878 0.298215
        -0.756406 -0.232284 -0.169338
        0.142742 -2.64827 0.862794
        -0.352867 -1.77726 0.357345
        0.0100706 -1.33989 0.644475
        0.535739 -1.78634 -0.424873
        0.693962 -1.51773 -0.687162
        0.692133 0.802392 0.130451
        0.335321 -0.910931 1.03098
        0.733811 -1.05405 -0.961573
        -0.194397 -0.152836 0.423976
        1.68516 -0.311195 -0.105618
        -0.0096631 -1.19606 0.259877
        -0.0569543 -2.97132 0.0889979
        -1.10612 -2.03633 1.15292
        -0.255372 -1.76131 -0.66983
        -0.763557 -1.75615 0.905517
        -0.478614 -1.61878 0.456864
        -0.363543 -1.14225 -0.413041
        -0.716546 -1.70586 -0.579941
        -0.774589 -1.55377 0.552553
        -0.246281 -0.980532 1.28037
        -0.460037 -1.59928 0.580784
        0.656072 -1.88165 0.418378
        1.13116 -2.00622 -0.16841
        0.579647 -1.63729 1.13677
        -0.600632 -0.632202 0.944841
        0.25328 -1.28199 -0.548902
        -0.500053 -2.39278 -0.315043
        0.309599 -2.07351 0.753232
        -0.0785427 -1.00824 -0.617694
        -0.243697 -1.07968 -0.526375
        1.42182 -1.07026 -0.996899
        -0.852538 -1.30162 -0.19583
        -0.917324 -0.879313 -0.216152
        -0.217411 -3.47915 0.806068
        -0.120413 -1.56491 -1.60133
        2.23413 -0.964618 0.181919
        -0.0986209 -0.756068 -0.236236
        -0.966343 -1.40728 0.769292
        0.734547 -4.57801 -0.291974
        -0.266109 -1.34316 0.0343023
        0.0342876 -1.22183 -0.683176
        0.434988 -1.1704 0.0103603
        -0.154745 -0.0162875 0.491244
        -0.865124 -1.09078 -0.832656
        -0.869043 -2.41328 -0.658013
        -0.0690409 -1.62991 -0.253786
        0.0210222 -0.846579 1.57872
        -0.155963 -2.32435 -0.127963
        1.18572 -0.468377 0.573948
        1.556 -1.88937 -0.118307
        0.646607 -2.19719 -1.19117
        -0.888773 -2.50745 1.31898
        -0.0269923 -1.92237 -0.387524
        -0.199673 0.834673 0.424138
        1.0825 -1.2897 1.16614
        -0.10301 -1.09383 -0.485939
        -0.938818 -0.482351 -0.751256
        1.05298 0.428135 -1.65529
        -0.363185 0.371235 0.271361
        -1.63774 -1.58972 0.390909
        -0.67764 -1.1692 -0.222943
        -0.473948 -1.91846 -1.90604
        0.574536 -1.72985 1.34257
        -0.387227 -1.96668 0.294475
        0.85687 -1.05372 -0.572953
        1.17982 -1.19805 0.360889
        0.377079 -1.87466 -0.142618
        -0.0264392 -2.96595 0.00874343
        0.529398 -0.920501 0.132718
        0.0295022 -1.41201 0.207146
        -0.62254 -0.349881 0.730902
        1.4323 -1.88644 0.715549
        0.545437 -2.06967 -0.307993
        1.34049 -1.31662 -0.750964
        0.368747 -1.81363 0.0816538
        -0.457179 -1.22559 0.142599
        -0.869444 -0.956533 -0.0262891
        1.01185 -1.64325 -0.142464
        0.0189425 0.846328 0.772659
        -0.15573 -0.79762 0.301039
        -0.376317 -0.307782 -0.969149
        0.282594 -1.17344 1.41239
        -0.321032 -0.638154 1.21256
        0.374624 -1.3799 -2.46947
        0.976675 -0.526117 -0.172744
        -0.693067 -0.812726 0.0385346
        -0.249572 -0.527156 -1.07636
        -0.168784 -2.71567 -1.12978
        -0.284894 0.501604 -0.650478
        -1.53292 -1.91327 -1.32404
        -1.1207 -0.334688 0.829862
        -0.716227 -0.125292 -0.405625
        -0.421105 0.319677 0.0577957
        -0.347818 -1.67375 1.66348
        -0.955901 -1.17803 0.0801448
        0.306929 -0.952402 -0.24275
        -0.810432 -1.23756 -0.661851
        -0.232062 -0.533618 -0.686189
        0.291767 -0.94779 1.96938
        0.979396 -2.81831 0.178508
        1.16115 -1.93669 -0.909476
        -0.999467 -0.879565 -1.28865
        -0.714269 -1.25219 1.05391
        0.580675 -0.409273 -0.647854
        -0.332686 -1.41176 0.599519
        1.44033 -0.460743 -0.63027
        -1.33645 -0.0225461 0.160841
        -0.231919 0.139791 -1.20812
        -0.837258 -0.256578 0.440873
        0.812819 0.292366 -0.111464
        0.595973 0.171392 0.943664
        0.41084 -1.74196 0.248764
        0.605847 1.87841 -0.350722
        0.176032 1.10906 0.175276
        1.1173 0.273486 0.00111773
        0.292569 -0.387397 -0.383567
        0.385948 -0.248153 0.217834
        0.0948386 0.692139 0.198874
        0.984706 1.62887 0.584197
        -0.277193 1.113 -0.0587246
        0.475486 0.72606 0.626065
        0.891654 0.524177 -0.0568844
        -0.315777 0.50688 1.49835
        0.964113 0.441277 -1.38548
        0.337786 0.651169 0.0141115
        -0.762869 0.587294 0.272298
        -0.255554 0.579022 0.375538
        -0.404973 0.724851 1.11461
        0.873094 1.02136 0.171716
        0.187494 0.365658 0.497591
        0.475008 -0.332287 -0.447622
        0.406129 1.08546 1.9711
        -0.936294 2.1835 0.0220698
        0.797843 0.961849 1.79974
        -0.753799 0.957226 -0.0195532
        -0.0636171 -0.715258 -0.267924
        -0.765911 0.486904 0.81664
        -0.421307 1.48391 -0.0279017
        0.955765 1.26195 -0.297056
        -0.15045 2.21192 0.490832
        0.350497 1.22658 -0.864371
        0.601459 0.759161 -1.29245
        -1.17527 2.45696 -0.241978
        -0.107608 1.3112 -0.388601
        -1.14138 1.57774 -0.334425
        -0.392731 1.75223 1.71852
        -0.0334541 0.160477 -0.757252
        1.09358 1.57331 -0.123102
        -0.598682 1.13706 -1.07749
        -0.373609 1.36847 -0.40027
        -0.858384 1.98108 0.0480709
        0.635755 1.30753 1.10828
        -0.765855 2.01258 -0.184
        0.596693 1.50134 -1.9802
        -0.374171 0.715508 -0.659447
        -1.32516 1.10221 -0.274775
        -0.573094 1.88913 -0.354751
        -0.818889 2.05024 -0.237949
        -0.119804 1.715 -0.0154189
        -1.09824 1.00455 0.51542
        -0.377453 1.70025 0.317062
        0.610698 1.553 0.377825
        -0.253839 -0.049525 0.135675
        -1.11839 0.836899 -0.0849353
        -1.28853 1.26982 -0.325803
        0.298977 -0.404175 -0.757109
        -0.201535 0.057952 0.28554
        -0.960736 1.5393 1.97489
        0.25492 0.233743 -0.676202
        0.768319 0.792258 -0.739316
        0.629647 1.50845 0.687177
        -0.107092 0.146105 -0.303459
        0.562023 0.418556 1.18318
        -0.509304 1.21223 0.22268
        -0.110847 1.38548 0.493091
        -0.972954 -0.342793 0.769212
        -0.859336 2.39287 0.386216
        -0.550603 0.689893 -0.288255
        -1.47015 2.63621 0.513623
        -0.976307 1.22767 -0.0309191
        0.499174 1.38308 -0.131376
        0.616798 1.34994 0.267415
        -0.161862 1.58463 -0.808067
        1.90981 1.91878 -0.429969
        0.0551413 0.954376 1.43209
        0.179471 1.92109 0.546723
        -0.318132 1.40024 0.26669
        0.00361495 2.43401 0.356802
        0.744346 1.89262 -0.978107
        -0.347492 0.819249 0.892902
        0.0729835 1.27842 0.0987733
        -0.212791 2.01629 0.354585
        0.514091 0.420683 -0.539777
        -0.269993 2.39918 -0.672722
        0.000123697 0.629318 1.79048
        -0.251362 1.30175 0.630826
        -0.307514 2.14202 0.20925
        1.16748 2.08546 -0.127733
        0.854155 1.81104 1.15914
        -0.705587 1.01592 0.51243
        0.38883 0.986022 0.770814
        -0.213195 1.69998 0.776525
        0.472772 0.727081 -0.63755
        0.743236 1.23487 -0.338464
        0.216989 3.07737 -1.00131
        1.29046 0.899533 0.253667
        -0.331494 1.32936 -0.331805
        -0.121985 0.967474 -0.992404
        -0.607072 1.90101 -1.4783
        -1.78636 1.77442 -0.0199772
        -0.276968 2.19902 0.644168
        0.915182 1.76243 1.07287
        -0.723619 2.94793 -0.764853
        0.295164 1.89112 0.0403565
        -1.78934 0.568966 0.507807
        0.314264 1.99249 0.201684
        0.0788944 0.998207 -0.347306
        0.597015 2.34804 -0.0220331
        0.593821 1.99442 1.4147
        0.230417 1.06792 -0.252813
        -0.0558084 1.58766 0.591859
        0.646674 1.32415 -0.00545989
        -1.08697 2.04033 -0.198901
        -1.06037 0.744134 -0.461301
        -0.0648114 1.32222 -0.66367
        -0.341747 0.498421 1.30041
        -0.0325569 1.84789 -0.799929
        0.225351 2.03226 0.789456
        -1.54517 2.13211 -0.00914115
        0.200925 1.97704 0.715776
        0.27741 0.855177 -1.02036
        -0.765072 0.99498 0.0739267
        -0.126864 1.08776 -0.918455
        0.284009 1.24623 -1.32545
        -0.0428649 1.22024 -0.634288
        0.118832 3.01449 0.0451562
        1.07069 1.61518 0.198206
        -0.285684 1.12369 0.237996
        0.698332 0.200647 -0.161884
        -0.381264 1.04011 0.509463
        0.686504 1.26179 0.490403
        -1.14201 0.921076 0.00108241
        0.211151 1.625 -0.178554
        -1.3651 2.61431 0.0366259
        1.06044 1.98055 0.416094
        0.129958 1.46069 -0.430204
        -0.201121 0.999153 0.681003
        -0.253414 -0.46972 0.497902
        0.286477 0.855925 0.548672
        -0.35404 0.936303 -1.35333
        0.142793 1.52732 -0.670719
        -0.147017 1.44329 -0.56954
        0.501659 0.265653 -0.077397
        -0.429246 1.59016 0.437387
        -0.362249 2.67338 0.0421095
        0.431049 1.53696 0.0298084
        -0.990234 2.19717 -1.24608
        0.270212 -0.186814 -1.26077
        0.717931 1.35971 0.00213115
        0.21337 0.371551 0.0892785
        -0.679187 1.73513 -0.318348
        -0.689118 1.57577 -0.684405
        -0.533872 2.11831 -0.69042
        0.523084 -0.317229 -0.0843242
        0.586579 0.444187 1.00543
        -0.849161 1.83805 0.779716
        -0.859908 1.57007 0.348907
        0.163651 2.90528 -0.296915
        -1.37209 1.17306 -0.830801
        -0.94777 0.668571 0.829426
        0.685481 0.0143134 -0.326581
        0.187212 1.85935 0.00602172
        0.475805 2.19931 0.5449
        -0.145493 -1.15386 0.768709
        -0.231598 -1.13272 0.797372
        -0.22067 -2.15619 0.306482
        1.00787 -1.85517 1.30223
        0.871815 -2.21939 0.333608
        -0.775637 -2.6209 -0.67411
        0.581818 -2.68938 -0.354577
        -0.848578 -0.694763 -1.05202
        -0.196821 0.688297 -0.385237
        0.855363 -1.80281 0.25672
        0.01934 -1.68259 -0.187391
        0.679334 -1.54048 0.28511
        -0.0606402 -0.552598 0.277194
        0.425185 -0.807667 -0.165297
        -0.311074 -0.567325 -0.547498
        0.109453 0.210435 0.815124
        0.407034 -0.743756 1.09232
        0.0277849 0.0175698 -0.630429
        0.545083 -1.72453 0.777927
        1.0175 -0.763101 -0.386798
        -1.06631 -2.78092 1.18715
        0.143612 -0.467386 -0.904507
        0.44974 -1.47557 0.0171744
        -0.774195 -1.3587 -0.0925702
        0.823256 -1.11308 -0.496241
        -0.580538 -0.537174 0.375159
        0.147004 -1.4433 0.569471
        0.631053 -0.607372 -0.0864924
        -0.91072 -1.8961 -0.723405
        0.538797 -0.791543 -0.426425
        0.516498 -0.810768 0.47179
        1.22382 -1.24438 0.302774
        0.46187 -1.38467 0.258632
        0.650958 -1.42863 -0.499846
        1.0221 -2.54114 0.337645
        0.833747 -2.15988 -0.609281
        0.778584 -2.13674 -0.438911
        1.40174 -0.759673 -0.825301
        0.293737 -0.9235 -0.186579
        0.284559 -0.672511 0.407358
        -0.0293893 -0.269881 -0.401363
        -1.20106 -1.81118 -1.09457
        -0.396627 -2.28212 -0.0306983
        -0.531641 -1.22387 -0.0102855
        -0.0369096 -2.593 0.580961
        -0.0121441 -0.609611 0.106074
        0.592112 -1.04442 0.0188091
        0.0264022 -2.32058 0.0415584
        -0.062565 -1.01315 -0.752721
        -0.0228422 -1.50239 -0.374402
        -0.692155 -1.4865 -1.78148
        1.28362 -2.11743 -0.658799
        1.45961 -1.35978 0.232925
        0.733822 -0.472489 -1.44715
        -1.06251 -1.28242 -1.21885
        -1.03337 -1.06617 1.10376
        -1.04942 -0.11209 0.691635
        0.469175 -1.88694 -0.674498
        0.493013 -1.06533 0.583014
        -0.865604 -0.658242 1.34164
        -0.0396136 -1.5008 -0.692665
        0.370953 -2.06327 0.12385
        -1.05793 -0.394916 -0.989969
        0.185958 -1.99681 -1.40672
        -0.816755 -1.31555 -0.0249688
        -1.62315 -1.75716 0.0670342
        0.596024 -1.58959 -0.150405
        0.275695 -0.874881 -0.0534284
        -0.250138 -1.92624 -0.211882
        0.884285 -1.4011 -0.0843922
        -1.01687 -0.29531 0.718949
        -0.330333 -1.21411 0.631394
        0.0556248 0.00994913 -0.760112
        -0.0227366 -0.393172 0.475726
        0.229316 -1.26409 -0.727445
        -0.660422 -2.78424 -0.446332
        0.358796 -0.340868 -0.527395
        -0.532615 -1.33458 -0.0892154
        0.383971 -0.828732 -0.683793
        0.501087 -0.506948 1.13932
        -0.514052 -0.420618 0.539543
        -0.575864 -1.21376 0.340364
        0.5284 -0.357802 0.228551
        -0.474751 -1.52202 -1.17542
        0.976481 -0.327999 -0.0782947
        0.325354 -0.783717 0.440114
        0.663244 -1.74797 -0.0899088
        0.251883 -1.4985 -0.215448
        -0.80184 -2.01515 -1.01072
        -0.0938997 -0.832963 -0.534859
        0.385739 -2.67033 -0.0533688
        0.135622 -1.98597 -0.304832
        1.1254 -1.84783 -1.28442
        2.00403 -1.05923 0.0928909
        -0.373511 -1.60865 -1.2146
        0.701312 -0.647773 -0.639082
        -0.4466 -1.93312 0.223701
        -0.351341 -2.50209 0.329638
        0.603389 -2.36268 1.49116
        0.382094 -0.74935 1.17582
        0.378384 -0.733294 -0.185166
        1.21121 -0.21217 0.062557
        -1.00587 -1.4504 -1.39043