<?xml version="1.0" encoding="UTF-8" standalone="no" ?>
<VTKFile byte_order="LittleEndian" type="UnstructuredGrid" version="0.1">
  <UnstructuredGrid>
    <Piece NumberOfCells="0" NumberOfPoints="1764">
      <PointData>
        <DataArray Name="velocities" NumberOfComponents="3" format="ascii" type="Float32">
        -0.0688693 -1.48458 0.811722
        0.521225 -1.62744 -0.152654
        -1.10353 -2.11866 1.04469
        0.966283 -0.945599 0.418567
        0.423746 -0.791295 -0.164481
        0.322174 -0.438222 0.31412
        -0.388821 -1.33421 -0.560486
        -0.212049 -1.21598 -0.522787
        0.359858 -0.495251 -0.251976
        -0.113367 -0.875028 -0.311124
        -1.17389 -2.99657 -0.390238
        1.09699 -2.92475 -1.50739
        -0.742057 -1.12737 -1.05917
        0.311425 -2.24578 1.04906
        1.04015 -0.658348 -1.04883
        -0.939406 -1.14932 1.06211
        -1.07188 -1.99658 1.17608
        -0.75453 -1.79154 -0.335497
        0.948576 -0.878902 0.224579
        -0.238083 -2.26498 0.762755
        0.952994 -0.450724 -0.0360544
        -0.292183 -2.18469 -0.488805
        -0.344955 -1.03298 0.000460164
        -0.235368 -0.640512 -0.0279645
        0.459709 -1.58348 0.644666
        0.439741 -1.15246 -1.29934
        -0.11965 -1.76379 -0.87802
        0.168494 -1.7119 0.251398
        -0.308591 -1.43807 0.161526
        0.773148 -0.45991 -0.0799204
        -0.232866 -1.10735 0.88572
        -0.427656 -1.43976 -0.342924
        -1.51072 -2.56398 -1.02157
        0.740492 -1.44823 0.984399
        -1.18574 -2.53033 -0.188164
        0.269329 -1.49322 -0.791483
        -2.36747 -1.75894 -0.346847
        1.31048 -2.27432 -0.685237
        -0.212214 -0.93438 0.351397
        -0.434821 -0.42524 -0.218934
        0.827356 -1.72908 0.460157
        0.80697 -0.742811 -0.573327
        -0.395078 -1.548 -0.460424
        -0.33959 -0.703606 0.441733
        -0.590734 -2.99309 0.340523
        -0.980344 -2.49126 -0.332213
        -0.0973323 -1.27712 -0.804258
        0.41399 -1.03184 -0.977632
        -0.479289 -1.12366 0.00592066
        0.559569 -0.590844 0.485504
        0.646313 -1.73471 -0.9836
        0.377813 -2.34593 -0.102752
        -0.343721 -0.353763 -0.774026
        -0.849663 -1.06494 -0.202819
        1.81689 -2.09042 0.148814
        -0.00676644 -1.20651 1.15983
        -0.702302 -1.18048 -1.00523
        0.304079 -0.0319993 0.453756
        0.271006 -0.859735 -0.167356
        1.54719 -1.2474 -0.0388912
        0.713307 -0.250331 -1.42288
        1.10475 -0.0525994 0.667955
        -0.116136 -1.84288 0.286843
        0.0209157 -1.28504 0.0509703
        -0.61618 0.201313 -0.621391
        0.636082 -1.70965 -0.476931
        -0.779223 -1.32996 0.480719
        0.234224 -2.23904 0.0701522
        0.37805 -1.01329 0.851815
        -0.222945 -2.30851 -0.203138
        2.32465 -1.00467 -0.086705
        0.0329066 -0.797549 1.20346
        0.409889 -0.0301295 -0.522416
        1.05942 -1.94424 -0.462533
        0.937067 -0.732864 -0.00397486
        -1.64597 -0.922115 0.0139531
        0.00795371 -1.07507 -0.108803
        0.1908 -2.3094 -0.468396
        0.394406 -1.57678 -0.627061
        -0.625038 -1.15588 0.270951
        0.0611246 -2.10499 0.435082
        -0.117127 -1.43654 -0.552324
        1.34663 -1.40259 -0.53719
        0.497801 -0.644182 0.318524
        0.0160418 -0.176148 -0.413128
        0.006918 -0.435829 0.697495
        0.637753 -0.650117 -0.725655
        0.522576 -1.69844 -0.89888
        -0.346275 -0.145917 -0.437635
        1.20996 -1.61045 -0.0538989
        0.36085 -1.07396 0.488883
        -0.708292 -2.15452 0.589553
        0.485463 -0.687766 -1.1091
        -0.320386 -0.67307 0.916248
        -0.33353 -0.664313 -0.840319
        0.221554 -1.27816 -0.314185
        1.31908 -1.64163 1.20935
        0.277572 -0.284846 0.752115
        0.0512479 -1.75488 -1.46809
        -0.00294691 -0.468095 0.213027
        -0.602008 -0.263932 0.22357
        0.417764 -1.32681 0.515682
        0.750158 -0.618784 0.237565
        -0.185887 -0.460834 -0.276019
        1.0368 -1.5803 -0.910085
        0.627016 -1.91664 0.00932274
        -0.522421 -2.00725 0.801052
        -1.07468 -0.696364 -0.439269
        0.480493 -0.812756 -0.71419
        0.677869 -2.10853 -1.21652
        -0.437975 -2.20051 -0.666601
        -0.372495 -1.65394 -0.212778
        -0.118409 -0.751455 -0.511503
        -0.0793503 -0.921632 -1.48266
        0.554565 -0.209754 0.24838
        -0.159372 -0.867239 -1.00379
        -1.06297 -1.72987 -0.581484
        -0.351644 -0.769029 1.14643
        -0.939685 -1.29338 0.418052
        -0.170955 -2.44771 -0.939597
        -0.705401 -2.02731 0.800703
        0.613828 -1.02972 -1.66292
        1.01443 -0.918204 0.0699058
        0.230892 -1.51805 -0.637597
        -0.424343 -2.37115 1.2084
        -0.40955 -1.59132 -0.0540885
        -0.346103 -1.8277 0.587846
        -0.373021 -1.51996 -1.63744
        0.827744 -0.869377 2.57893
        -0.0541514 -0.626962 -0.0277482
        -0.441138 -1.75611 0.643767
        0.0650971 -1.98106 1.4814
        0.28734 -1.85843 -0.677937
        -0.551322 -1.5906 0.455116
        0.785988 -2.08263 -0.432781
        -0.29147 -1.36718 0.165466
        -0.016923 0.379734 -2.07397
        -0.463122 -0.964616 -0.936902
        0.940214 -0.243809 0.466135
        -0.637628 -2.07474 0.215173
        0.812308 -2.32461 0.308548
        -0.319804 -0.593029 0.283943
        -0.0322715 -0.124494 -0.500008
        0.178269 -2.56204 -0.362359
        0.19085 -1.10658 -0.526907
        0.057723 -0.0588198 0.733279
        0.24359 -1.44536 -1.18344
        1.26247 -1.0697 1.41342
        0.175562 -1.51601 -0.410765
        -0.151001 -1.20592 -0.557774
        -1.38839 -1.69918 0.0624897
        -0.474964 -1.65735 0.078956
        -0.159954 -2.03975 0.0887908
        -1.232 -1.40765 1.04136
        -0.857936 0.0833955 0.652639
        -1.31417 -0.577712 -0.991831
        0.751106 -0.361578 -0.275964
        0.236216 -0.536237 0.219847
        -0.275316 -1.72501 0.00653328
        0.401075 -0.432356 0.440383
        -0.434884 -1.06512 -0.180355
        -0.521074 -1.06852 0.0398268
        -0.601532 -0.368635 0.810692
        -0.217229 -1.08982 -0.22256
        0.541692 -0.282662 -0.217043
        -0.868774 -0.60526 0.900722
        -0.500982 -0.824744 -0.0837453
        0.0105325 -0.0136821 1.08722
        -0.814047 -0.888633 0.219319
        0.743377 -0.546231 -0.174215
        0.263179 -2.01125 0.0137448
        -1.07018 -1.24067 -0.333032
        -1.01921 0.0267792 -1.09021
        0.426801 0.868225 -0.755918
        0.111061 -0.814429 -0.416966
        -0.301194 -1.8899 0.190717
        0.565315 -0.780756 0.000194408
        -1.37113 -1.50838 0.327384
        -0.760315 -1.3027 -0.601751
        0.764715 -0.283713 0.819531
        0.784758 -0.321771 -0.100399
        0.295367 0.180687 1.37336
        -0.639785 0.4431 -0.528987
        0.326722 0.747041 0.460573
        -0.154286 -0.384192 1.82824
        0.763353 -0.306482 -0.403477
        0.0408697 0.810642 -0.106622
        1.92715 0.377591 -0.510708
        -0.300763 1.17102 -0.19119
        -1.46592 0.23196 0.561263
        -0.156126 -0.0552493 -0.0314891
        0.0199202 0.709867 -0.960395
        0.87396 1.0673 0.831461
        0.771948 -0.00156845 0.353716
        0.289451 0.122153 0.265884
        1.31878 1.16194 0.729781
        0.107814 0.435045 -1.37705
        0.584266 1.96726 1.02159
        1.55883 1.24626 0.199953
        -0.736438 1.28427 -0.499666
        -1.00896 1.15246 -0.750443
        -0.326449 1.42636 -0.721764
        0.557007 1.33192 0.22922
        -0.338262 1.15475 0.209774
        0.804789 1.94757 1.07188
        -0.029075 1.47492 0.428791
        0.331592 0.930357 -0.492042
        0.911949 1.44359 -1.41905
        0.223552 0.73257 0.738703
        1.06898 1.9703 0.831874
        -0.550767 1.09053 0.369593
        -1.44446 0.298733 -0.615784
        0.166707 1.95068 0.449603
        0.506238 1.37349 2.06606
        0.0544958 2.04313 -1.51639
        -0.0530211 0.886867 0.624038
        0.432026 1.36523 0.572314
        -0.581419 0.837175 -0.455882
        -1.20518 0.756885 1.64451
        -0.614449 0.834004 0.536116
        0.8878 2.18478 -1.17122
        0.213322 1.15687 -0.892385
        0.543077 2.52923 0.553477
        1.53782 1.02991 0.446211
        0.801503 1.01495 -0.23932
        0.888637 0.140761 -0.151934
        -0.535348 1.92471 0.205304
        0.206254 1.56321 0.31809
        -0.129144 0.639223 -1.27438
        -0.393198 1.78801 -0.455196
        -0.606653 0.828609 -1.38922
        0.153644 1.13318 -0.214799
        0.145059 2.23461 -0.235935
        -0.287359 -0.0488962 0.299866
        0.629049 2.8525 -0.1489
        -1.01817 2.89874 0.374316
        0.480211 1.08229 -0.422416
        -0.0636506 0.059789 0.383516
        0.915061 2.54286 1.09221
        0.497018 2.10461 0.112655
        0.0954867 1.77347 -0.12214
        -0.12911 0.603831 -0.671113
        0.368527 1.20345 -0.137688
        -0.950023 1.47698 -0.424694
        1.59149 0.866808 0.395265
        0.22052 1.76511 -0.783798
        -0.20684 0.623773 1.22104
        0.317986 1.85136 0.0327317
        1.74975 1.78216 -1.88219
        -0.256026 2.6021 0.611678
        0.452909 0.154848 0.760595
        1.47996 2.98907 -0.639803
        -0.440403 0.204509 1.20637
        1.91369 0.77966 -0.876905
        -0.197275 0.872485 -0.238187
        -0.837327 0.721248 -0.384062
        -0.123831 1.57057 -0.457659
        -0.80788 2.95744 -0.482601
        0.266378 1.33349 -0.297787
        -1.19465 1.32865 0.338263
        0.958326 2.43292 -0.179961
        0.415077 -0.288515 0.0890669
        -0.380406 1.22569 -0.43515
        0.284614 1.59156 1.06648
        0.480807 0.824349 -0.691259
        0.944694 0.526941 1.09568
        1.36362 1.57257 -0.189319
        -1.83994 1.95049 -0.138613
        -0.155778 1.21004 -0.223385
        -0.673342 2.25683 -1.68893
        -0.438852 0.0779986 -0.221732
        -0.394707 1.70755 0.493501
        1.04003 0.974586 0.663091
        0.626442 -0.102496 0.0342605
        0.801302 2.11492 0.174166
        -1.20953 2.3158 0.285982
        0.0533114 1.32605 -0.627634
        0.186167 -0.136089 0.548078
        0.495405 1.68153 0.577381
        -0.910627 0.777122 0.401105
        0.699684 0.186858 -0.750915
        -0.383006 1.8639 -0.18256
        0.033991 0.617067 -1.70589
        0.674068 1.87785 0.727398
        -0.252305 1.72342 0.356655
        -0.405959 1.45371 0.305084
        -0.833728 0.258746 0.230392
        0.410842 1.35009 -0.223551
        0.498103 0.158845 1.65378
        -0.273184 0.761807 0.764363
        0.891903 1.25702 -1.47112
        -1.03154 1.86562 0.783381
        0.0583434 0.946132 -0.30024
        -0.742696 1.90008 -0.23915
        1.24253 1.54108 -0.58451
        -1.11844 1.32685 -0.297534
        -0.307039 0.661601 -0.438628
        0.705708 1.7609 0.563867
        1.4777 1.70904 0.0913016
        0.0328736 0.848174 -0.135686
        0.336372 2.40708 0.23943
        0.361727 2.43942 1.43422
        0.48626 1.54479 0.156213
        2.14765 0.439412 1.30047
        0.203836 0.064185 0.9636
        -1.1049 0.572569 0.377015
        0.472801 1.09189 1.2281
        0.841034 2.09671 0.0645684
        0.0745471 2.17969 0.219978
        0.0489858 1.34557 0.471181
        0.132647 0.837608 -0.385696
        0.182219 1.31306 -0.553618
        0.608363 1.38876 0.0307159
        0.476461 1.64229 0.0280844
        0.512708 1.29748 -0.623205
        -0.745586 2.31547 0.0912136
        0.550246 1.16606 -0.10744
        0.0215626 1.00536 0.574482
        0.223745 1.94194 -0.746085
        -0.0817011 0.89893 0.251938
        -0.229097 0.433592 0.163612
        -0.656621 1.01653 0.784862
        0.651411 0.999521 -1.35899
        -1.52807 1.03783 -0.392042
        -0.614488 0.574092 0.102535
        -1.30276 1.69584 0.480733
        -1.01767 0.803358 -1.00868
        -1.17062 1.38962 0.224384
        0.414727 2.20419 -0.136751
        0.191564 1.07438 0.361981
        0.88042 1.61297 -0.645637
        -0.780916 1.83678 0.513168
        -0.82015 2.5153 -0.0733756
        0.136511 0.297487 -0.670233
        -0.10943 0.306978 -1.87265
        -1.63997 1.87766 0.877623
        0.426244 1.46569 -0.31811
        -0.0555286 1.71244 -0.414294
        0.649321 1.86407 -0.278073
        0.662872 0.775533 -0.265909
        0.322725 1.0863 0.244316
        -0.447133 2.08068 1.0618
        1.8846 1.97426 -0.213578
        1.11392 1.76871 0.222516
        -0.0316825 0.863972 -1.27237
        1.23212 1.75039 0.609752
        0.149976 1.37749 -1.27057
        0.316256 2.32141 -0.123789
        0.994606 0.422734 -0.244422
        -0.790672 -0.538055 0.529463
        -0.857729 1.29658 0.459789
        -0.79483 1.98154 -0.0148186
        -0.255742 1.80458 0.216465
        -0.792388 2.83591 0.733834
        -0.673452 1.36397 1.7261
        -0.143686 0.963165 0.366036
        -0.678988 1.78183 -0.259468
        0.675017 1.35239 -0.351672
        0.670552 0.512709 -0.215788
        -1.77071 1.37314 -0.0809937
        0.533587 0.412496 0.425713
        0.316495 1.63847 0.270632
        0.19601 2.03401 -0.413034
        0.455176 -0.435021 -0.760976
        0.716624 2.41361 -0.687085
        -1.12173 1.75065 0.684819
        0.30095 1.68026 0.0142571
        1.43124 1.79316 0.654992
        -0.895442 0.998521 -0.44891
        1.26573 -1.23735 1.79649
        -0.377348 -0.840768 0.171345
        0.573815 -1.2244 0.0785083
        -0.394771 -1.20675 0.206593
        -0.174543 -1.64205 0.486948
        0.0128751 -0.481283 1.13941
        -0.790832 -0.730358 1.54009
        -0.592889 -1.28843 -0.122084
        -1.34325 -1.38553 -0.852244
        1.53856 -0.396627 -0.0281205
        0.525946 -1.32959 1.43064
        1.1453 -2.89825 0.130456
        0.0837127 -1.68769 0.860947
        0.277548 0.541676 -0.752807
        0.564102 -1.52169 -1.00283
        0.98145 -2.60289 -0.984443
        1.24341 -1.45534 -1.54898
        -0.200999 -1.2877 -0.506176
        0.320695 -1.01045 -0.822691
        0.728622 -1.02612 -0.299404
        -0.7528 -0.692789 -2.17004
        -0.338481 -3.06246 -1.37729
        0.629861 -1.84588 0.594841
        -0.264682 -0.341184 0.291754
        0.513007 -0.41515 0.478772
        -0.691071 -1.5303 -0.295983
        -1.48246 -1.94103 0.337559
        0.32076 -1.18954 -0.0121761
        0.588968 -0.866998 -0.876909
        1.40253 -1.02335 0.699287
        -0.476297 -1.65526 -0.519622
        0.658151 -1.01368 0.811633
        0.46145 -2.0848 0.0196197
        0.881925 -2.03663 -0.023856
        -1.17632 -1.25592 -0.276083
        0.457033 -0.673731 -0.374664
        -0.169627 -0.544859 0.395377
        -0.270904 -2.25998 -0.268568
        -0.286004 -1.03371 -1.33321
        -0.384497 -1.66567 -0.75046
        0.625867 -1.43136 0.047577
        0.821807 0.67961 -0.0225397
        0.473395 -1.62063 0.22999
        0.46031 -1.7741 0.714566
        0.320147 -0.212625 -0.723362
        0.0780403 -0.690137 0.929819
        -0.882505 -0.077816 0.926652
        -0.767917 -1.69936 1.17785
        -0.631238 -1.6896 -0.174252
        -2.24052 -0.228707 -1.37581
        -0.894164 -0.311224 2.0004
        -0.130684 -1.83167 -0.751235
        0.0157306 -1.96013 -1.48645
        -0.0085233 -2.62617 -0.628526
        -0.364657 0.0313336 0.0815527
        0.11793 -0.911411 -0.403989
        0.368811 -0.948321 0.762612
        -0.0496362 -2.07157 0.0164206
        -0.374061 -2.74483 1.20298
        -0.20248 -0.668508 -0.304929
        -0.102917 -0.806153 0.258127
        -0.0391295 -0.815625 0.743026
        0.240059 -1.08359 -0.172315
        0.666133 -1.14138 -0.0641652
        -0.415135 -0.591288 0.350269
        -0.383546 -0.293888 1.11422
        -2.78848 -2.22915 -0.918141
        -0.344551 -1.23603 -0.72139
        0.0943832 0.517162 0.199123
        0.569171 -2.05786 0.0306424
        -1.25489 -1.92572 1.84327
        0.185965 -1.4551 -0.181952
        0.143272 -1.56517 0.509004
        0.584958 -1.13415 -1.25101
        0.116498 -1.82535 0.208914
        0.0965237 -2.21563 -0.254212
        -0.452282 -1.58222 -0.646915
        0.524283 -0.609687 -0.672754
        -0.116641 -0.679632 -1.13594
        0.619449 -1.49176 -0.321464
        0.0684082 -2.26269 0.0113726
        0.352055 -0.302799 1.00955
        0.799496 -1.04443 -0.0489541
        -0.333333 -2.00225 1.28063
        -1.13716 -0.861235 0.68919
        -0.293793 -0.89194 -0.810491
        0.470381 -0.967109 -0.0471467
        0.638992 -1.31865 -0.709603
        -0.153194 -1.29265 0.632397
        -0.482037 -2.3947 0.0879846
        2.23701 -0.296277 -0.470831
        -0.902288 -2.15623 0.539897
        0.118697 -0.833873 0.980941
        0.705915 -0.956779 0.303123
        -0.539728 -0.0908399 0.745262
        0.0935113 -0.0971395 1.04202
        1.36904 -1.28152 0.83078
        0.50109 -1.61416 -0.774988
        0.675499 -0.839807 0.840517
        -0.455696 -2.10975 -1.07788
        -0.201801 -2.33022 -0.547188
        -2.01755 -0.633144 -0.200009
        0.224122 -0.56327 -0.324456
        0.434412 -0.350943 0.0504784
        0.0935844 -2.48525 -0.811272
        0.176093 -1.05212 1.27807
        -0.198033 -0.611954 -0.009541
        0.938079 -1.54441 -1.17245
        0.184036 -1.0897 -0.770785
        0.777031 -0.56186 0.576577
        0.339097 -0.373287 0.367034
        0.19086 -2.15408 -0.12425
        0.857007 0.354427 0.167314
        -0.983573 -1.67062 -0.400606
        0.708798 -1.57711 0.566615
        0.792946 -0.991851 -1.22628
        -0.188129 -0.41995 -0.971445
        -0.0303121 0.188722 -0.392468
        -0.466112 -1.35312 -0.0248659
        0.379984 -2.14305 -0.00550566
        -0.0933504 -1.74722 1.04437
        0.328966 -1.19889 1.28268
        -0.354915 -1.37542 1.14574
        -0.239717 -2.81206 -0.220047
        0.166935 -0.833929 0.373835
        0.231834 -1.6025 1.03805
        0.313199 -1.97016 0.233959
        -0.226244 -0.0855905 -0.450109
        0.838315 -2.04998 -0.771201
        0.734921 -0.990568 0.0828566
        -0.72417 -1.81792 1.02631
        0.00475996 -0.0262433 0.0407256
        -0.751286 -0.715254 -0.567921
        -1.80915 -1.81359 -1.00484
        0.382753 -1.20833 -0.025399
        0.355303 0.164627 1.14113
        0.58183 -0.858166 0.534915
        -0.0680725 -1.73665 -1.42427
        0.303141 -2.75474 0.266949
        0.311064 -0.726738 -0.247468
        0.298038 -1.54513 -0.754944
        0.342084 -1.56192 -1.37302
        0.637229 -1.67813 -0.180948
        0.443866 -1.97278 -1.57957
        -0.252803 -1.3138 -1.02483
        1.50868 -1.69176 -0.350933
        -0.145548 -2.84079 0.556617
        -0.0654742 -1.18874 -0.419854
        -0.948498 -0.659184 -1.12355
        -0.243405 0.399402 -0.903782
        -0.148312 0.0305462 -0.266915
        -0.445794 0.0406458 -0.704097
        1.42524 -1.54255 0.669589
        -1.64405 -1.27384 -1.06949
        -0.434706 -1.41352 -0.193303
        0.470079 -1.41625 -0.358902
        -1.36595 -1.17754 -0.0468922
        -0.327315 -2.39365 -0.452007
        0.118305 -1.8659 -0.239244
        1.45841 -2.05178 1.34553
        -0.332406 -1.7797 0.0886468
        1.80483 -1.07073 0.23075
        0.0939528 -1.41192 0.512193
        -0.453797 -0.201947 -0.251003
        -0.842342 -0.0425541 -0.22842
        -0.215745 -1.33153 -0.100213
        0.129134 -1.72364 0.215817
        -0.593949 -0.328683 -1.66148
        0.499136 -0.781324 0.964219
        0.378003 -1.84794 -1.31396
        -1.8003 -1.09634 -0.9732
        -1.39686 -0.962718 0.434991
        0.198993 -0.249816 -0.9818
        -1.07728 -1.87803 0.548975
        -0.857335 -1.308 -0.464992
        0.531018 -0.417191 1.30456
        -0.781647 -0.517872 0.225948
        -0.686161 -2.22994 0.403912
        0.533975 -1.26346 0.378658
        -0.050978 -1.52831 -0.41686
        0.127383 -1.13196 0.563325
        0.0151068 -0.905962 0.455025
        -2.26078 -1.17043 0.457565
        -0.379241 -1.2027 -0.394339
        -0.359431 -2.3948 -0.0968976
        -0.121633 -1.75808 -0.263767
        0.124671 -1.74586 1.18692
        -0.0857892 -0.0774476 0.0191084
        0.31987 -0.254924 0.917535
        -0.531223 -1.66635 -1.06256
        0.454006 -0.371363 1.00391
        1.87559 0.275852 -0.571541
        -0.750157 -0.148881 1.12355
        -0.696361 1.43444 -0.47902
        1.19314 0.133921 0.962429
        0.755433 0.397035 -0.0798981
        -1.29312 0.916536 -0.787761
        0.325009 0.549486 -0.178279
        -0.149599 -0.888067 -0.263696
        -0.289607 1.32377 1.22173
        0.363566 0.154137 -1.43092
        0.521186 0.433148 0.301073
        1.3187 0.653648 0.223973
        0.73233 0.302092 0.111195
        -0.801983 1.06606 -0.2706
        -0.183994 0.41699 -0.903929
        0.0772123 -0.150916 0.555943
        0.888983 1.18671 0.864867
        -0.408978 0.674258 0.229242
        0.121829 1.12901 2.00264
        0.457897 0.896405 0.0676045
        -0.106456 0.605478 -0.401097
        -0.646208 0.513638 -1.2131
        -0.0726358 1.55143 -0.227071
        -0.727951 -0.335152 1.54214
        0.987518 1.04033 -0.569785
        -1.41671 0.739805 1.75106
        0.511568 0.197739 -0.190118
        0.0402373 1.80823 -1.01375
        0.459962 0.811174 0.157497
        -0.6242 0.894199 0.260705
        0.053612 1.13559 0.573371
        -0.272203 1.21556 -0.591823
        0.016841 0.23978 1.58744
        -0.320962 1.76732 1.3666
        -0.340256 1.04252 0.302077
        -0.138778 0.657651 -0.178752
        0.667447 1.5891 -0.416709
        -0.601905 1.70988 0.146088
        -0.45441 1.13996 0.81196
        -1.55358 1.6029 0.915343
        -0.632848 2.70808 0.726133
        -0.159408 1.01509 -0.510899
        -0.74712 1.66449 0.376131
        0.317264 2.5013 -0.341989
        0.487476 3.05593 0.630732
        0.335429 1.24626 -0.585389
        0.421203 2.95911 -0.409017
        -1.29633 1.75318 -0.333503
        0.16209 1.75167 -0.382223
        -0.470934 2.00569 -0.51692
        0.372462 1.35234 0.552859
        -1.66395 1.25425 -0.530355
        -0.294574 1.09694 0.603825
        1.01642 1.48449 -0.914356
        -0.71937 2.19881 -0.556472
        -0.418037 1.41842 0.268015
        -0.528471 0.0302139 -0.863471
        -0.989212 2.36296 0.525884
        0.381138 2.00234 0.457134
        1.06285 1.24553 0.783232
        0.148256 1.29401 0.624671
        -0.355188 2.26808 -1.12921
        -0.488592 1.68757 -0.171845
        0.323081 1.51379 0.849594
        -0.685047 1.86143 0.0458017
        -1.19309 0.791002 -0.978094
        -0.923635 1.21564 -0.0295137
        -1.30425 0.145628 -0.602758
        -0.0139892 1.97212 2.24717
        0.218051 0.973398 -0.438503
        -1.18793 1.4251 -0.924317
        -0.928689 0.736091 -0.69038
        -0.344924 2.0797 -0.106161
        -0.663246 1.64698 0.261759
        -0.408524 0.107212 -0.705098
        -0.337533 1.62732 -0.377298
        -0.627528 1.0628 -0.225629
        0.968386 0.591022 0.269082
        0.195298 0.841173 0.302945
        -0.602042 1.726 0.153374
        0.770048 1.44681 -0.0106482
        0.934031 1.53619 0.15153
        -0.243099 1.72518 -0.28071
        0.948742 1.04455 0.838247
        -0.663789 1.62902 1.45087
        -1.0692 1.82703 0.547354
        0.805046 2.26941 0.198483
        0.835948 -0.025918 1.2368
        0.206316 1.58592 0.356429
        0.411771 0.751388 -1.12662
        -0.656635 0.711856 0.138934
        -0.139819 1.11546 0.510505
        0.0909842 1.48646 1.12463
        -0.483409 1.7704 -0.491017
        -0.710793 0.281992 0.850687
        -0.0882921 1.05485 -0.848296
        0.501452 1.53486 -0.657416
        -1.10722 1.45528 -1.20803
        -1.03434 1.90811 -0.0627032
        0.187449 0.518222 -0.570981
        1.05936 0.544878 -1.30316
        0.182383 0.731679 -0.910256
        -0.904338 0.649616 -0.348575
        -0.0382586 1.1638 0.00420784
        -0.28456 0.53756 -1.21756
        -0.0970686 0.76712 0.366778
        0.69735 0.934306 0.635197
        0.845374 0.824242 -1.13864
        0.109138 1.15244 -0.161124
        -0.744161 2.25643 0.0742864
        0.0605408 0.147953 -0.670906
        -0.26448 2.18006 0.617172
        -1.10513 3.02509 -0.693452
        -0.0384265 1.84424 -0.346278
        -1.25336 1.75443 -0.628943
        -1.0599 0.834835 1.74496
        0.00634957 1.4755 0.153267
        1.59693 1.806 -0.205345
        -0.22355 -0.0290724 2.28486
        0.456823 0.741553 -0.0908812
        -0.611348 1.04421 0.121487
        0.066423 -0.334673 0.892676
        -1.15674 0.807385 -0.226075
        -0.819703 1.58062 0.378991
        -0.35717 1.34509 -0.660075
        0.298166 1.36751 -0.482203
        0.83066 1.24249 -0.221567
        -0.137861 0.859883 1.00971
        0.087417 0.981242 -0.798162
        -0.306172 1.22736 0.426922
        -0.231689 -0.309643 -0.725107
        -0.744294 1.2367 1.06803
        0.0659387 1.54893 -1.56907
        -1.16409 3.21088 0.182854
        -0.948216 1.24438 -0.968442
        -0.775392 1.61833 1.22531
        -1.32013 1.02633 -0.90812
        -0.110476 1.4446 -0.333773
        0.0294056 0.794994 -0.610776
        -0.0847497 1.83806 -1.81489
        0.573342 0.323334 0.759547
        -0.464517 0.694951 0.429487
        -1.66527 1.23132 -0.772652
        -0.102214 1.0515 0.0628881
        0.329542 0.576146 0.0493219
        -0.226063 1.08477 0.58054
        -1.09135 2.83077 -0.988481
        -0.307701 2.26915 0.0448581
        1.34447 2.13473 -0.518419
        -0.624196 1.44056 -0.0266106
        -1.15205 1.89746 -0.195861
        0.360409 1.17822 -0.724853
        0.595951 0.790254 0.58144
        0.0894452 1.82533 -0.242583
        -1.01886 1.88251 0.510598
        -1.64633 2.00277 -0.214044
        -0.412712 0.949673 -0.208394
        -1.26986 0.992608 -0.41955
        0.00452467 1.11491 1.58682
        0.146983 1.71599 -0.0835
        0.00390645 1.38013 -0.0412029
        -2.33933 1.64419 -1.15201
        -0.837748 2.49457 0.457238
        0.420954 0.0566161 -0.368808
        0.588557 1.17145 -0.124472
        -0.954114 -0.101206 0.499462
        -1.30665 0.77396 -0.716824
        0.465345 2.21751 -0.625544
        0.111022 1.20673 0.135181
        0.336043 1.98541 -0.450169
        1.56405 2.61224 -0.990559
        0.537597 0.834222 1.19197
        0.0319506 2.04725 0.371072
        0.715743 0.8715 -0.223198
        0.671291 1.70616 0.777838
        -0.0352291 1.82369 -0.365629
        0.348494 0.653618 1.38864
        -0.929636 1.08501 -0.124955
        -0.959476 1.762 0.620934
        0.605857 1.70219 0.381059
        -0.564193 1.88468 -0.217695
        -0.590149 1.98249 -0.735708
        0.866377 -1.27952 1.49902
        0.916269 -0.496245 -0.119934
        0.364652 -1.32746 -0.0970317
        -1.23516 -1.16283 -1.60845
        1.38178 -1.16662 0.426702
        -0.356557 -0.666041 -1.95539
        0.280354 -1.60386 1.35554
        0.332461 -1.93125 0.407277
        -0.707481 -1.57914 -0.354037
        -0.0821715 -2.43903 -0.0508228
        0.700876 -2.51808 -0.101139
        -0.281024 -1.97909 -0.355346
        -1.85688 -2.10115 1.90779
        0.720814 -2.24787 0.000405559
        -0.873886 -2.06981 0.658396
        0.231714 -0.832572 -0.195571
        -0.655975 -1.36979 -0.538083
        -0.465617 -2.54634 -1.75273
        0.186752 -0.579343 -0.515321
        -0.725856 -1.48379 -0.318502
        0.511683 -1.26926 0.102226
        -1.17142 -1.85436 0.332436
        -0.594015 -0.946128 0.922516
        -0.351356 -0.0877693 0.0390122
        -0.253137 -1.12357 -1.36885
        0.345101 -1.12417 -0.0690494
        0.783252 -0.530992 0.206664
        -0.549024 -1.62632 1.05064
        0.926283 -2.13521 0.0471159
        -1.72878 -1.46555 -0.497724
        -1.06024 -1.69403 -0.764197
        0.231277 -1.20604 0.568682
        0.809705 -0.390003 -0.866314
        0.708628 -1.02684 -1.93384
        -0.488499 -2.24733 1.06573
        0.14249 -1.79453 0.320059
        -0.0377189 -1.51647 0.0284565
        0.344328 -2.75285 0.566233
        0.256402 -1.18067 -0.063657
        0.365362 -1.22453 0.848607
        0.277722 -1.57202 0.435665
        0.733032 -0.990732 -0.495261
        -0.961617 -1.06844 -0.0544506
        0.558082 -2.83809 -0.394468
        -0.576178 -1.54082 -1.43735
        2.21112 -2.07585 -0.57066
        1.02135 -1.16863 0.199421
        -0.836949 -2.15846 -0.127585
        -0.223247 -2.08823 -0.0507437
        -1.35706 -0.491605 0.990004
        0.20198 -1.92405 -1.23824
        0.109862 -2.26223 0.891717
        0.511662 -2.40209 -0.0494512
        -0.138015 -1.54057 0.0842572
        -0.264895 0.270854 -0.619394
        0.828825 -1.50368 -1.16343
        1.23498 -0.0575075 0.265059
        -0.00838889 -1.61425 -0.761829
        1.35837 -3.09002 0.306242
        -0.813938 -1.62008 0.481769
        0.13029 -0.995196 0.716203
        0.19522 -0.388667 -0.206333
        1.11617 -0.877358 1.49222
        1.28703 -2.77678 -0.503615
        0.636328 -0.427496 0.0752687
        -0.774793 -0.826777 0.392418
        0.424965 -1.66723 -0.401938
        -0.210482 -2.64044 -0.052112
        2.14787 -1.6237 0.164484
        0.525356 -0.417138 0.453621
        0.460649 -1.50927 -0.285693
        0.637897 -2.36171 -0.33114
        0.117464 -1.78512 0.180736
        -0.0791909 -2.70686 0.33601
        1.2861 -1.5247 -0.586613
        -0.037673 -0.840003 -0.710284
        -0.160034 -0.325848 -0.140158
        -0.026136 -0.554415 0.27623
        -1.23455 -1.79364 -0.665414
        -0.293052 -2.33154 -0.0867608
        -0.690465 -0.54616 -0.229414
        -0.903248 -1.61561 0.312699
        -0.209769 -0.810011 0.270689
        -0.656741 -0.986381 -0.260372
        -0.788594 -2.43582 1.21634
        -0.161731 0.0116333 -0.876558
        0.215214 -0.142818 0.0815289
        0.492899 -1.39449 0.124341
        1.71695 -0.657975 -0.675893
        -0.295355 -1.40297 -0.402136
        -0.524347 -1.40722 -0.710562
        -0.226466 -0.829239 -0.356938