<?xml version="1.0" encoding="UTF-8" standalone="no" ?>
<VTKFile byte_order="LittleEndian" type="UnstructuredGrid" version="0.1">
  <UnstructuredGrid>
    <Piece NumberOfCells="0" NumberOfPoints="1764">
      <PointData>
        <DataArray Name="velocities" NumberOfComponents="3" format="ascii" type="Float32">
        0.231589 -0.15475 -0.396262
        1.08718 -1.49684 -0.90179
        -0.936384 -0.733961 1.27362
        -0.292948 -2.51516 -0.413621
        -0.0297502 -0.021654 -0.11443
        -0.440045 -1.52032 -0.560663
        0.459587 -0.328892 0.285399
        -0.314121 -1.50236 -0.363634
        0.33834 -1.58057 0.272977
        1.03573 -1.4961 -0.458418
        0.266398 -1.31062 0.840937
        0.386635 -1.75033 -0.676171
        0.980606 -0.728067 0.642903
        -1.73212 -0.988967 -0.168026
        -0.489646 -1.86157 0.168662
        0.652574 -1.27391 -0.949877
        -0.144088 -1.09981 -0.724981
        0.487177 -0.848275 -0.430255
        0.267729 -3.12523 -0.203225
        -1.33646 -1.09811 1.62949
        -0.12033 -1.68085 -0.278226
        -0.963951 -0.201925 1.15416
        0.627951 -0.872164 -0.284006
        -0.701444 -1.12082 0.350665
        -0.00298809 -1.82289 -0.690274
        0.848022 -1.01521 -0.81851
        -0.257362 -1.60996 0.787666
        -0.573515 -1.26551 0.528161
        1.00798 -0.33638 -0.420279
        0.306694 -1.01613 -0.606329
        -0.504714 -0.351688 0.320221
        0.452272 -1.64016 0.0864
        -0.170195 -1.67208 0.326388
        -0.950927 -0.968117 0.261646
        0.691879 0.140792 -1.11017
        -1.10954 -0.432327 -1.15385
        0.831844 -1.45466 -0.0259219
        -0.20413 -0.765812 -0.552217
        0.447805 -0.776473 -0.688862
        -0.236686 -0.736766 0.151585
        -0.00868636 -0.824458 0.291508
        0.294919 -1.21413 0.62778
        1.89527 -0.984364 -1.05008
        -0.424147 -1.76101 0.326377
        -0.01426 0.215431 -0.138934
        -0.256858 -0.804213 -0.249266
        0.416954 -1.47732 -0.918236
        0.0831404 -1.04391 -1.18936
        -0.508555 -0.630938 -0.782647
        -0.984001 -1.20134 0.547592
        0.0503175 -0.450809 -0.0584584
        0.146214 -0.874276 0.793127
        -0.591806 -2.8965 0.266584
        2.0582 -2.14615 0.444811
        0.273638 -1.64647 -0.268959
        -0.352955 -1.9247 -0.599971
        -0.025834 -0.403157 0.802723
        0.443446 -0.324836 0.623096
        -0.0310204 -0.801577 0.213692
        -0.14857 0.457844 -0.194914
        -0.027025 -2.755 0.578841
        0.357236 -2.27001 -1.07775
        -0.34604 -0.662147 0.178693
        1.39271 -0.383565 0.506752
        0.0736169 -1.47335 0.821631
        0.409036 -1.87041 -1.21526
        -0.763628 -0.78514 -0.75316
        0.44961 -2.81017 -0.396952
        1.00212 -0.92174 -0.375258
        0.60339 -0.59015 -1.06367
        -0.446768 -1.39866 -0.467862
        -0.319095 -1.03243 -0.338532
        0.603756 -1.01792 0.176605
        -0.542827 -1.70629 0.700872
        0.320098 -2.38952 -0.00624543
        -0.701193 0.189399 -0.397769
        -0.997503 -1.99139 -0.948176
        0.153499 -0.190003 1.59853
        0.544953 -3.56379 1.07281
        1.02257 -1.15512 -0.593984
        0.734784 -2.02409 1.34223
        1.25854 -1.41297 0.5755
        0.678407 -0.76909 -0.0792235
        0.725246 -0.948236 -0.472117
        -1.08958 -1.01802 1.10761
        -0.249441 -1.67036 -0.644369
        -0.842845 -2.04583 -0.858269
        -0.796637 -0.218715 1.32781
        -0.70243 -1.7472 0.178954
        0.334911 -1.80194 -0.829506
        -0.477038 -2.76539 -0.833797
        0.796561 0.147599 -1.07394
        0.505528 -2.53774 0.0870962
        -0.0107074 -1.44814 0.425676
        -0.802542 -1.24502 0.268845
        -0.069783 -1.72897 -0.891298
        0.521054 -1.39929 -0.665434
        -0.231115 0.143726 -0.454002
        -0.139405 -1.98759 -0.494438
        0.762021 -0.837749 0.0752849
        0.464772 -1.99802 0.73682
        -0.0903038 -0.399265 -0.117909
        0.386729 -0.619805 0.0967103
        -0.218114 -1.1357 2.60223
        0.437642 -1.08772 0.00860559
        1.00559 -1.21144 0.37558
        0.347087 -1.26363 0.858546
        0.0694271 -1.82323 -1.74314
        -0.502278 -2.14128 0.51002
        -0.226715 -1.18494 -0.308924
        -0.629439 -1.32282 -0.772854
        1.30396 -0.61002 -0.115018
        0.673899 -1.24494 -1.92031
        1.06686 -1.8201 0.66865
        -0.038654 -0.966245 0.601748
        -0.0284488 -2.13183 0.282031
        -0.202004 -2.21251 -0.263455
        -0.0106706 -1.3432 0.302706
        1.25232 -1.96227 0.166678
        -0.108613 -1.80382 0.862469
        -0.495373 -0.867467 -0.961704
        -0.715745 -0.540723 -0.317679
        0.758596 -0.692591 0.831015
        0.346414 -0.428816 -0.719844
        1.38738 -0.0648307 0.441081
        0.888456 -0.419736 -0.967106
        0.921621 -1.34633 0.111102
        -0.0574146 -2.85759 -0.902867
        1.02766 -1.01578 0.00438526
        -0.451512 -1.2198 0.256461
        -1.5806 -1.72493 0.464304
        0.0930747 -1.2101 -0.445074
        0.251951 -1.1145 -0.388548
        -1.3827 -0.754335 -0.269559
        -0.450115 -1.32493 0.445469
        -0.325612 -1.42243 0.250423
        -1.97754 -0.761967 -0.880337
        -0.837467 -1.37368 -0.119029
        -1.07738 -1.32873 -0.0713405
        -0.0886925 -1.34467 1.10705
        0.428902 -1.03374 0.292295
        -0.560357 -0.990631 -0.953158
        -1.51306 -2.1821 1.35455
        -0.677769 0.088198 1.29012
        -0.117329 -1.11355 -1.39763
        -0.13328 -0.752662 1.09912
        0.384594 0.236123 -0.0222487
        0.0805367 -1.2578 -1.03845
        -1.06067 -1.28567 -1.9957
        -0.487346 -1.20694 -0.748436
        0.0357956 -1.76326 -1.03964
        -0.0306841 0.0352601 0.0546656
        -0.338323 -0.328913 -0.711425
        -0.943821 -0.151851 -0.686045
        0.692786 0.216968 -0.309981
        -0.306882 -0.750559 0.0172581
        -0.322296 -0.675458 -0.973194
        0.300576 0.0666041 0.0130959
        0.484388 -0.724086 0.731872
        0.386067 -0.818279 -0.21063
        1.08727 -1.4276 -0.388851
        -0.436056 -1.19131 0.515276
        -1.17824 -0.742068 -1.42723
        0.269232 -1.45273 0.223037
        0.565385 -0.184803 -0.455824
        -0.164615 -0.193104 -0.353311
        0.233663 -1.14122 -0.307757
        -1.0615 -1.53755 0.580453
        0.599925 -0.888146 -0.854523
        -1.58552 -1.51604 0.313407
        -0.570206 -1.98045 -1.00027
        -0.755602 -1.99976 0.447151
        -0.0678351 -0.72478 -0.571276
        -1.13143 -1.23123 0.359388
        -1.35127 -0.525904 -0.827389
        0.178561 -0.821892 0.368694
        0.50866 -0.286491 0.959471
        0.784758 -0.321771 -0.100399
        1.07153 1.73397 0.00307964
        -0.309409 1.32228 -0.499099
        -0.920153 1.2707 0.504551
        -1.08706 -0.739315 -0.1209
        -0.338083 0.188174 -1.44418
        0.337107 0.358007 1.08718
        -0.567468 -0.101322 -1.58431
        0.167308 -0.149748 0.811882
        -0.990365 1.50015 0.836917
        -0.0868585 0.192196 0.920551
        -0.0854308 0.033215 -0.455535
        -0.420404 0.735672 -0.226501
        -0.128093 -0.621046 -0.511064
        0.065804 1.22598 -0.421968
        0.528914 1.36956 0.533459
        -0.54264 -0.489701 -0.095707
        -0.116416 0.679859 0.137603
        0.461736 0.832669 0.299813
        -1.32566 0.300686 0.750135
        0.481444 0.945239 0.669951
        2.35646 1.22166 -0.304919
        0.264824 1.91496 0.494291
        0.182607 -0.35705 0.0158482
        0.90174 3.57396 -0.634984
        0.0403478 1.82826 1.29045
        0.312614 0.528767 -1.41267
        0.0715678 0.876339 1.21462
        -0.105685 1.41496 -1.72117
        0.567957 1.1977 -0.454775
        0.320173 2.61835 0.54166
        -0.122161 1.84368 0.971876
        -1.16118 1.45496 0.00895388
        -1.07727 1.8618 0.680326
        0.0177614 1.94994 0.24123
        -0.82018 1.38662 -1.11243
        0.123657 1.64174 0.338485
        0.332349 1.79054 1.12824
        0.392213 1.10227 -0.402684
        1.34043 0.552706 -0.790249
        -0.409751 0.587227 0.657991
        -0.241504 1.15347 0.609131
        1.80559 1.60758 -0.573228
        -0.359373 1.21296 -0.433484
        0.0142862 2.6103 -0.358081
        -0.688624 2.95574 0.365348
        0.993175 0.315819 0.694218
        0.0197928 -0.374921 0.141629
        0.46392 1.49548 -0.793988
        -0.0243593 0.241507 0.764758
        0.233223 1.68601 -0.857865
        -0.409521 0.291749 -0.419655
        -0.0935826 0.717248 1.03603
        0.18579 2.08329 -0.446741
        -1.03762 1.45191 0.831163
        -0.507706 2.06915 0.881814
        0.675709 -0.25126 0.671409
        0.453148 2.83141 0.19237
        -0.123288 0.532253 -0.187959
        0.877445 0.498941 -1.16345
        -0.118154 1.47054 -0.142873
        -0.521258 0.716681 -0.514039
        -0.313819 1.28113 0.447944
        0.33963 0.830792 0.864277
        0.738868 1.63757 -0.0818423
        1.17474 2.04988 0.367811
        0.0672928 1.08255 -1.17485
        0.43844 0.913488 0.224007
        0.579956 1.26664 0.657403
        -0.905239 1.28354 -1.65254
        -0.862775 2.64681 0.533543
        -0.336419 1.06859 0.278236
        -0.0816251 1.58885 0.236618
        0.110403 -0.609764 0.61407
        0.610933 1.74885 0.358192
        -0.636842 2.03948 -0.818336
        -0.749844 2.02637 0.60347
        1.02538 1.80889 0.683349
        -0.446398 1.3041 -0.646265
        0.628886 1.89195 0.0347691
        -0.685636 2.29482 -0.736145
        -0.375826 1.62485 0.201128
        -0.563986 2.25233 0.0122266
        -1.21005 0.590442 1.09679
        1.01315 1.36951 0.104289
        0.422901 1.09055 -0.728953
        -0.0088412 0.387637 1.12211
        -0.632542 2.27281 -0.411025
        0.225239 1.77363 -0.102665
        0.50882 2.32067 -0.108703
        -0.333614 1.846 0.233747
        0.256459 1.48653 -0.471849
        -0.0584136 0.811736 1.36312
        -0.743516 2.07483 -0.929525
        -0.273082 0.857551 0.778325
        -0.61872 1.30665 0.290304
        0.800001 1.37856 -0.290242
        1.5431 0.114963 0.0207426
        -0.634251 1.73119 0.6037
        0.756153 1.44561 0.71309
        0.959063 0.618117 0.842338
        -0.921446 1.20929 -1.35582
        -1.1157 2.22495 -0.247252
        -0.0132445 1.74509 -0.244483
        0.355993 1.43797 1.0863
        -0.331923 0.919024 0.861118
        -0.439171 2.24421 -1.06903
        0.319748 0.94566 0.3312
        -0.528668 1.21689 -1.22735
        1.01654 1.92365 -0.946891
        -0.0996594 0.239198 1.20255
        -0.0750172 2.28328 1.40794
        -0.0773919 1.41374 -0.910926
        -0.730914 2.08547 0.427011
        0.0592004 1.60967 1.01204
        0.00581119 1.90762 -0.230282
        0.719434 1.94119 -0.925735
        -1.40138 1.29321 -0.337798
        0.000501959 0.106108 0.00379497
        -0.604885 2.43943 -0.048018
        0.0905928 1.462 0.9082
        0.805684 1.55188 -0.722156
        -0.592764 1.61181 -0.390491
        1.18615 1.04441 0.907517
        -0.271959 1.61372 -0.120621
        -0.416532 1.23503 -1.37123
        1.03629 1.55908 -1.07733
        0.198473 2.10107 -0.653299
        0.320397 2.29078 -1.34672
        0.234809 1.60917 -1.34702
        -0.546252 0.434636 0.504581
        -1.21059 1.56109 0.461512
        -0.57678 2.74411 -0.59788
        -0.0109384 2.45439 -0.023866
        -0.15313 1.89103 -0.60781
        0.245444 1.73072 -0.57447
        -0.647498 1.96299 0.0886039
        -0.863457 2.93216 -0.312502
        -0.0583122 0.197927 0.40675
        -0.349252 0.0717287 -0.358588
        0.0886824 1.06701 -0.560116
        0.663072 0.772568 -0.486158
        0.739612 2.09223 0.749234
        -0.825951 2.19414 -0.310605
        -0.944448 0.287329 -0.165443
        -0.946576 1.46348 0.718171
        -1.79395 -0.342841 0.209183
        -1.08869 2.51153 -0.336943
        -0.254994 2.95809 -0.198223
        0.129406 1.55788 -1.52891
        -0.857557 0.977991 -0.474841
        -0.576655 1.76075 0.545667
        -0.982975 1.76475 0.526148
        -0.160863 2.63992 -0.328763
        -0.0890098 0.65067 -1.36945
        -0.152453 1.16125 0.674418
        0.194276 0.347308 1.40996
        -0.0164481 1.47686 -0.303756
        0.897705 1.35753 0.161356
        -0.868518 1.34429 0.515046
        -0.405854 1.26957 -0.411431
        1.48213 0.800214 -0.391259
        -0.0611648 0.744099 0.288545
        0.343452 0.649337 -0.689362
        -0.227669 1.43992 -1.73626
        0.834475 2.49111 -0.324939
        -0.382671 1.98109 -0.866036
        -0.43592 1.28861 -0.536583
        -0.0104616 1.52826 -0.342568
        -0.230185 1.87141 0.590717
        0.117258 1.65732 0.638585
        0.0355923 2.1619 -0.180172
        -0.152889 1.3171 1.73588
        0.160329 1.4884 -0.0482307
        0.61453 2.21762 -0.343102
        0.268045 1.21061 -1.61119
        -0.602589 1.29092 0.61443
        0.904863 0.162107 -0.388114
        0.133205 2.3783 -0.136714
        -0.104188 0.675261 0.135576
        -0.958498 1.47276 0.921682
        -0.467928 2.28268 0.814427
        -0.370654 0.0396679 0.272383
        0.47089 2.09347 -0.168286
        0.259342 2.76333 -0.0744781
        -0.634957 1.09753 -0.0377661
        1.45328 1.12197 -0.118856
        0.394479 1.40426 0.823812
        -0.940047 1.86502 -0.638321
        -0.0445677 1.22593 0.614221
        -0.0161292 -1.87239 0.671816
        1.35673 -1.62848 1.04205
        -0.886311 -0.361176 0.271051
        -0.080999 -0.0960656 0.965811
        0.709601 -0.323584 -1.4579
        0.453986 -1.65099 -1.38066
        1.60328 -1.75933 -0.600481
        0.332056 -2.82235 -0.0354311
        1.06162 -1.61481 0.860648
        0.0558895 -1.55997 -0.387796
        -0.38736 -1.26955 0.426126
        0.619747 -0.897856 -0.0895317
        0.732206 -2.57874 -0.278673
        0.407694 -1.22221 -0.0898783
        0.981366 -2.12168 0.239943
        -1.0664 -2.09346 0.583221
        0.39254 -1.39586 -0.244277
        -0.0301032 -2.24071 0.307287
        -0.660037 -1.72538 0.852576
        0.140742 -0.721206 -0.50247
        -0.931312 -1.2086 0.253053
        0.42504 -0.933261 -0.776672
        0.23282 0.0779982 0.756376
        -0.713851 -1.1575 -0.0296424
        0.633636 -1.93937 -0.536436
        -0.828484 -2.48794 -0.00481584
        0.822478 -1.79658 0.34546
        -0.143412 0.156883 -0.623972
        0.491798 -1.59472 -0.15939
        0.260364 -0.651036 -0.011663
        -0.401364 -1.22104 -0.739452
        -0.302327 -2.85821 -0.0103027
        0.334709 -0.987251 0.364909
        0.178111 -1.75731 -0.380457
        0.362596 -1.94965 0.908237
        1.0281 -0.335447 1.29126
        0.565325 -0.655626 -0.783883
        1.39156 -1.92079 -0.864117
        -1.15405 -0.376886 0.143852
        -0.483288 0.425412 -1.25628
        -5.42326e-05 -0.505041 -0.145786
        -0.30405 -0.382521 -0.509834
        -1.03103 -0.969489 0.947386
        0.0329795 -2.52499 0.128023
        -1.21182 -2.28375 0.445975
        0.28438 -0.78631 -0.810546
        -0.085135 -1.67387 0.0174772
        0.0049617 -0.404718 -0.896869
        -0.8722 -0.380658 -0.116712
        -0.789952 -1.73645 0.27
        -0.564008 -2.36897 -0.393399
        1.05533 -2.38895 -0.714139
        0.397984 -1.53744 0.209053
        -0.417407 -1.36349 -0.151651
        -0.966647 -0.78402 -0.0685396
        0.619714 -2.21196 -0.863037
        -1.05445 -2.2513 0.117344
        -1.19443 -1.90183 -0.343125
        -0.332435 -1.96814 -0.0885078
        -0.70514 -2.09815 -0.335202
        -1.82426 -2.17689 -0.57624
        -1.04027 -1.15706 -0.392884
        1.06137 -1.47883 -0.974211
        -0.881367 -1.33878 0.899108
        -0.955326 -0.8687 -0.671617
        -0.058372 -2.2205 1.52166
        0.083117 -1.77223 -0.752934
        0.873302 -0.620276 -0.313913
        0.11628 -0.546924 -1.01616
        -0.207611 -1.42024 -0.282025
        -0.458018 -0.777524 -0.334721
        -0.0230063 -1.51337 0.294725
        -0.549179 -0.39871 0.502108
        0.947636 0.163817 -0.213471
        -0.00340641 -2.2306 0.184531
        -0.881533 -0.878238 -1.5256
        0.074792 -1.77401 -0.509314
        0.674552 -3.17866 -1.41161
        0.188168 -0.484114 -0.90968
        -0.12148 -1.58122 -0.170161
        0.710484 -0.474974 0.990889
        -0.00915899 -2.81279 -0.267164
        -0.369742 -1.12106 0.641495
        0.120202 -0.465916 0.382848
        -0.588442 -0.0765483 0.186235
        0.3822 -1.19237 -0.229163
        -0.299945 -1.26526 0.105635
        0.300842 -1.13672 -0.980517
        0.951229 -0.911044 -1.12667
        0.0023421 -1.43043 -0.429768
        1.3091 -1.90475 -0.237417
        1.20457 -2.01186 -0.0396735
        -0.631263 -1.7189 0.143268
        -0.122474 -0.81691 -0.400108
        -1.13715 -1.63753 0.769168
        0.653813 -1.57863 0.0419411
        -0.214407 -0.0206316 -0.122453
        0.672361 -0.92125 -0.581264
        -0.570329 -3.4544 0.613881
        0.505905 -2.05105 0.982711
        0.731424 -1.55301 -0.451822
        -0.0926481 -1.40291 -0.878993
        0.0400924 -1.24697 -0.870804
        0.05609 -1.17129 -0.474614
        -0.0335986 -0.617038 -1.45457
        -0.487804 -1.0925 0.0440276
        0.14735 -1.22831 -0.675945
        0.655814 -0.77487 1.24067
        -1.14762 -1.27705 -1.22632
        -1.15556 -1.24646 0.15252
        -0.14008 -2.62523 -1.20817
        -1.0199 -1.84095 -1.1934
        1.00215 -0.348225 1.04527
        -0.595523 -1.1115 0.164514
        1.17689 -1.57455 0.974134
        2.07737 -2.1441 -0.981215
        0.559195 -0.605707 0.642334
        -0.105044 -2.30118 -0.0379855
        -0.141534 -1.15964 -0.633752
        -0.251706 -0.673154 0.0703309
        0.0825297 -0.380401 0.918276
        -0.513238 -1.54937 -0.933194
        -0.245627 -1.90273 0.201423
        0.191309 -0.122039 0.513601
        1.00764 -1.67 -0.336663
        -0.0785287 -0.918054 -0.0339806
        0.583093 -1.46901 0.465582
        0.291118 -2.49627 0.396997
        1.13112 -1.59424 0.0565308
        -0.623075 -1.203 0.516214
        -0.173038 -0.171139 -0.516697
        0.586201 -1.31437 -1.15311
        2.41993 -2.38338 -0.017457
        -0.83869 -2.36353 0.084903
        0.0989828 -0.879652 -0.560008
        -0.948886 -0.465342 0.0815541
        -1.28515 -1.83572 -0.660639
        0.14285 -2.44249 0.192503
        1.4125 -0.859208 0.0788053
        0.0201643 -1.81848 -0.264953
        0.124592 -0.845674 -1.05106
        0.338305 -1.8128 -0.0942556
        -0.199397 -0.695374 -0.294734
        -0.149817 -0.196966 0.069688
        0.373488 -1.49065 -1.39956
        -0.511425 -0.236031 0.100563
        0.407842 0.219948 -0.77481
        -0.351997 -1.20018 0.837501
        0.811599 -2.34662 -0.309447
        0.144613 -1.81888 -0.298385
        -0.782453 -2.08965 -1.23399
        -0.866355 0.0682149 0.863468
        0.804214 0.171668 -0.584316
        -0.498138 -1.75494 -0.545562
        -0.17404 -0.436212 1.33824
        0.599953 -0.503916 -0.141845
        0.481153 -1.53322 1.36516
        -0.750472 0.636493 0.72186
        -2.59486 -0.35518 -1.41172
        -0.0787278 -1.04465 0.196831
        -0.239379 -2.42269 0.350017
        -1.38372 -1.91626 0.169892
        0.267976 -1.10263 0.37161
        -1.20099 -0.647539 0.664835
        -0.396176 -0.986883 -0.587141
        -0.218404 -2.35961 -0.552956
        0.93323 -0.836638 0.122143
        -0.77392 -0.130908 0.185679
        -0.193747 -0.785985 0.607365
        0.661832 -2.6922 0.887606
        0.679338 -0.788336 0.101242
        -0.36057 -0.557837 0.583998
        0.624468 -2.98177 -0.585498
        0.216797 -1.3371 -1.31417
        -1.22826 -1.35242 -0.68711
        0.936184 -1.68632 0.141834
        0.501632 -0.259036 -0.804274
        -1.61035 -1.3835 -0.777358
        -0.221359 -0.787916 0.126755
        -1.13567 -0.156673 0.122141
        -2.3054 -1.48634 -0.0322276
        -0.69144 -1.59936 0.0291938
        0.249261 0.702193 -2.37031
        0.482306 -2.32525 1.16912
        -1.40792 -0.0790323 -0.471561
        -0.822861 -1.71984 0.915577
        -0.9172 -1.21341 0.116063
        -0.39349 -0.774156 0.653689
        -0.348399 -0.720363 0.129563
        -0.545598 -0.16626 1.34598
        -0.893948 0.770428 0.120438
        0.14831 -0.747332 0.288493
        1.90908 0.270787 -0.55719
        -0.695978 0.535612 0.116457
        0.506315 -0.837041 -0.346484
        0.19019 -1.21007 1.57475
        -0.621346 0.536582 0.759082
        0.50193 0.661285 0.980537
        0.88091 1.42454 -0.131589
        1.39196 0.996195 -0.59208
        0.301348 0.186588 0.0922382
        1.28458 0.39715 0.206751
        0.747207 -0.411663 -0.388695
        1.17859 0.0998543 -0.334666
        -0.295114 -0.294446 0.139063
        1.53004 1.09181 -1.27218
        -0.705787 0.595593 -0.0120269
        0.498221 0.779868 0.489095
        0.822933 0.380589 -0.332338
        -0.024789 -0.248754 -0.782237
        -0.288044 0.761529 -0.122543
        -0.299054 -0.243054 0.0616822
        0.0324853 1.25127 1.07443
        -0.834386 0.523597 0.437257
        0.870245 0.970949 0.0247211
        -0.448057 0.633665 1.12654
        -0.953095 0.320641 -0.531443
        0.0349001 0.56442 0.12704
        -0.16576 1.69701 0.856312
        0.450535 0.949154 0.985624
        -1.35793 2.15133 0.0743648
        0.18526 2.0681 0.219349
        -0.60543 2.05278 -0.411237
        -0.0127461 1.18811 1.18706
        0.194257 0.826956 1.94908
        0.268994 -0.254756 -0.164595
        0.751715 1.19429 -0.00684436
        -0.862164 2.48575 -0.991851
        -1.01928 1.50449 0.570295
        -0.554101 0.480899 -1.08845
        -1.04946 1.58323 0.832239
        -1.29968 1.83108 -0.121117
        -1.81286 0.211684 -0.150578
        0.493084 0.35601 -0.661434
        -1.17744 0.0753724 1.15505
        -0.710913 1.55383 0.196564
        1.04068 2.24116 1.33344
        0.496441 2.07167 -0.4579
        0.454023 0.840349 0.652208
        -0.952336 -0.129025 -1.25875
        0.594468 1.06647 0.227463
        -0.502159 1.15402 0.380381
        -0.543078 0.81573 1.37587
        0.461951 0.818454 0.959911
        -0.342764 1.65444 -0.610871
        -1.26451 1.49141 -0.781261
        -0.323165 0.933696 -0.293083
        0.236861 0.952625 -0.0315702
        -1.98058 1.16248 0.703281
        -0.309534 0.851399 -0.204388
        0.608725 2.05121 -0.0967372
        -0.998592 2.90437 -0.0316297
        -0.746865 0.632551 0.616974
        0.0608256 1.8978 -0.112982
        0.901219 1.02413 0.0838204
        -0.0734627 0.301512 -0.0496695
        -0.614303 1.67555 -1.14689
        -0.796964 1.13596 -0.477937
        -0.165959 1.1502 -0.805418
        0.837755 1.76165 0.016918
        0.218979 1.7936 -1.11491
        -0.174399 1.70307 0.69131
        0.382227 2.50098 0.272447
        0.719489 0.0156397 1.36731
        0.873071 1.98139 0.00867449
        0.503863 1.24121 0.717859
        0.638596 -0.0461112 -0.219304
        -0.226832 1.43852 -0.134263
        0.111136 0.957857 -0.0376933
        -0.408817 1.76351 -0.212947
        -0.443937 1.94751 0.549075
        -0.641616 1.26385 0.752365
        1.65555 2.04953 -0.617058
        -0.553572 0.488925 -0.574675
        -0.755409 1.33267 -1.10854
        -0.299095 0.338011 -1.30197
        0.631664 1.33555 -0.335487
        0.197007 1.7984 -0.0539788
        -0.279979 0.901444 -0.137924
        -0.454106 0.771818 -1.81583
        -0.538636 0.936941 0.984712
        0.547256 0.68684 -0.413359
        -1.54064 1.83204 -0.508557
        0.87585 2.10664 -0.807661
        -0.555933 0.890063 0.99548
        0.91923 0.527212 -1.12063
        -1.26942 0.607641 0.501797
        -1.17331 2.14465 -0.144101
        0.893673 1.36323 0.183539
        0.280666 1.18042 0.761589
        -0.189747 1.70424 0.825025
        -0.40714 -0.253188 -0.367225
        -0.981179 1.1821 0.00303702
        0.169826 0.454627 0.842992
        -0.00470449 1.68388 1.04484
        -1.30714 1.97168 -1.61849
        -0.455519 1.19759 0.626832
        0.200825 1.8817 -0.237337
        0.873405 1.52416 -0.688732
        0.0899868 1.75897 0.277957
        0.532809 1.89948 0.121408
        0.441598 1.60049 1.47647
        -0.552362 1.3163 0.131323
        0.135807 2.45419 -0.0619881
        -0.342547 1.64544 -1.76447
        1.01011 0.803282 -1.44543
        -0.343278 0.474249 0.0388812
        0.247025 1.42894 -0.297166
        -0.176219 1.66012 -0.281239
        -0.569577 0.771877 0.717669
        -1.54195 -0.265071 0.396656
        0.17895 0.50656 0.616181
        0.606449 1.59638 1.10313
        0.251873 1.84657 -0.170308
        -0.578421 1.24624 -0.0556856
        -0.993216 -0.333455 0.226962
        -0.192689 1.00539 0.417137
        0.510452 0.934966 0.0978733
        0.681076 0.676044 -0.487864
        0.554107 0.835988 -0.952628
        -0.86493 1.48462 -0.743742
        -0.0439829 1.84124 -0.988683
        0.0941919 1.81072 -0.195307
        1.01622 1.78029 0.400977
        -0.605902 1.82641 0.965197
        -0.036863 0.861328 0.213226
        0.609608 1.39772 -0.488249
        -0.461528 1.33042 0.17038
        -1.35786 2.21427 -0.0788298
        -0.137494 2.47544 -0.565873
        -0.122857 0.0385243 0.69292
        -0.278932 2.2098 1.63979
        0.915772 1.20338 0.649331
        -0.309766 0.941416 0.32487
        -1.38193 0.879497 -0.375924
        -0.447254 1.89724 -0.888828
        -0.245912 0.726863 -0.707607
        0.13359 1.53094 -0.239799
        -0.342346 2.07994 -0.39006
        -0.144921 1.57069 0.0170187
        0.394107 1.11372 -0.82415
        -0.0294885 1.32819 0.416914
        -0.088265 2.48405 -0.0726023
        0.477821 1.17687 -0.056376
        -0.361659 0.264172 0.575645
        0.529022 1.83361 -1.82064
        -0.357883 0.938299 0.551583
        1.43668 0.97962 -1.06054
        -0.34624 0.412602 -0.632878
        0.715332 1.52102 -0.182128
        -1.05929 0.405593 0.463329
        1.3336 1.69807 0.885737
        0.620847 0.455323 0.206191
        -0.131902 1.1116 0.454999
        -0.607251 1.31652 -0.815054
        0.411085 0.529716 -0.262719
        0.10827 2.44273 0.0831424
        0.695173 -0.0751096 -0.710638
        -1.27562 1.28035 -0.157392
        -0.479984 1.4318 0.734993
        -0.350411 0.257878 0.0172217
        -0.697 0.831291 0.0864343
        -0.340312 1.56912 -1.47178
        -0.626161 3.24651 -0.50944
        0.882854 0.279597 0.370611
        -0.50981 1.08376 0.20213
        0.190839 0.967632 0.813985
        0.461963 -1.68447 1.10194
        -0.519038 -1.36593 -1.84311
        -0.587294 -0.542455 -0.897887
        -0.545334 0.0475091 1.0827
        0.605352 -2.25748 0.631985
        0.371415 -1.516 -0.241127
        0.265656 -0.774078 0.960535
        0.637834 -0.778667 0.114287
        -0.046029 -0.951804 -0.743553
        0.552869 -0.866178 0.317365
        -0.440066 -2.40734 -0.131282
        0.0981536 -1.72701 -0.0493156
        0.113334 -1.07372 -0.44445
        0.666056 -1.78415 0.00430738
        0.500636 -1.21006 0.271345
        0.0304049 -2.13998 -1.31739
        0.668586 -0.883657 0.284368
        0.224678 -1.94302 -0.115866
        0.0576609 -0.328315 0.101054
        0.156262 -0.162376 0.460307
        0.465091 -2.35422 1.08172
        0.361783 -2.60972 -0.0932123
        -0.24139 -1.18975 0.678694
        0.163606 -0.812589 -0.333713
        0.301768 -1.73432 -0.0134446
        0.956352 -3.27032 2.18055
        -0.539766 -0.354623 0.737148
        -0.118532 -0.560617 -0.221904
        -1.20021 -0.193703 -0.622113
        -0.231542 -0.00183773 1.10171
        0.398541 -2.02778 0.30101
        -0.535761 -0.187308 -0.555624
        0.719792 -0.484273 0.0726635
        0.190766 -1.67571 1.46271
        -0.0877836 -2.0118 0.876324
        1.32234 -0.815446 -0.51625
        -1.11669 -1.46904 1.17458
        0.120195 -0.303738 -1.22204
        -0.272858 -2.24974 0.378594
        -0.0726592 -1.90865 -1.22312
        -0.245893 -1.49197 0.310829
        1.07408 -1.51602 -0.120259
        0.268552 -2.51031 -0.0987519
        -1.24974 -1.2066 -0.529489
        -0.89954 -0.3277 0.651701
        -0.612505 -0.537332 0.170356
        -0.580424 -1.52294 -0.168861
        -0.495039 -0.921875 0.888268
        0.369204 -1.19165 0.306453
        1.85363 -1.07594 0.288537
        -0.712627 -1.50262 0.795449
        -1.09885 -1.00399 0.0307612
        -1.14883 -0.85924 -0.0789635
        0.705946 -1.89431 0.488524
        -0.171283 -0.974843 0.382658
        0.677727 -0.675814 0.860976
        0.564636 -0.674684 0.245162
        -1.36301 -1.3267 -0.423261
        0.77973 -1.69055 0.456619
        -0.532703 -1.24638 0.063305
        0.60882 -1.92809 1.08496
        0.579385 -0.472049 0.341366
        0.805609 -1.40727 1.07161
        -0.440157 -1.95971 -0.260384
        0.435169 -2.05773 -0.603494
        0.123718 -0.681531 0.560063
        -0.598561 -0.961582 -0.0398332
        -0.730847 -1.97609 -0.285596
        0.914899 -2.08111 -0.315063
        0.0518817 -0.876093 0.74444
        -0.436829 -2.23112 -0.134799
        0.0724883 -0.538109 -0.863059
        0.322944 -2.34434 0.224622
        0.399306 -1.47112 0.00766549
        -0.0993482 -2.68867 1.42421
        0.351467 -2.73621 -0.740771
        -0.537447 -1.44916 -0.334063
        -0.000372218 -0.723631 0.0238756
        -0.480752 -0.778633 0.585975
        0.919447 -1.59639 0.435379
        1.10435 -0.956289 0.563479
        -1.72194 -0.88436 -0.0781181
        1.29037 -1.92454 0.268081
        0.493803 -2.5856 0.557306
        0.554624 -0.798066 1.78953
        -0.360291 -0.243134 -0.135078
        -0.573737 -1.52812 -0.265652
        -1.39101 -0.718091 -0.421048
        -1.23359 -0.377832 0.670893
        0.353979 -1.26908 0.00578002
        1.10511 -1.11854 -0.489633
        0.120133 -0.768756 0.410468
        -1.92038 -0.47185 -1.22173
        0.0468468 -1.64283 0.745225
        0.686183 -2.41647 0.528021
        -0.380694 -1.91113 -0.261383
        -0.395256 -2.23824 1.47186
        -0.544125 -0.587399 -0.581204
        1.18561 -2.17515 0.901569