<?xml version="1.0" encoding="UTF-8" standalone="no" ?>
<VTKFile byte_order="LittleEndian" type="UnstructuredGrid" version="0.1">
  <UnstructuredGrid>
    <Piece NumberOfCells="0" NumberOfPoints="1764">
      <PointData>
        <DataArray Name="velocities" NumberOfComponents="3" format="ascii" type="Float32">
        -0.0757232 -1.4059 0.674586
        0.364699 -1.51741 -0.517471
        0.520498 -1.61435 0.256191
        -0.606325 -2.09429 1.33031
        -0.365733 -1.44073 0.0585686
        -0.530544 -2.44974 0.588127
        1.35149 -2.49349 0.111609
        -0.433145 -3.11654 0.465879
        -0.819027 -1.94447 -0.687575
        -0.648406 -1.95325 0.0141726
        -0.170129 -1.38584 -0.832157
        -1.25074 -1.61421 -0.732971
        1.16413 -0.911181 -1.12096
        0.195542 -0.384751 0.450603
        -0.38875 -0.975547 -0.41249
        -0.00464709 -1.8733 0.244092
        -0.415467 -1.8166 0.765213
        -0.333367 -1.82596 0.0978503
        0.421862 -2.10474 -1.00702
        -0.0350293 -2.30579 0.205012
        -0.13932 -1.50726 0.0848342
        -0.364459 -2.4523 0.0305123
        -1.95092 -1.62459 -0.197854
        0.414462 -1.07326 0.511635
        -1.21033 -1.31494 -0.549349
        -0.213377 -1.74585 0.37397
        0.427615 -1.03366 0.133374
        -0.203928 -2.93268 0.120979
        -0.351905 -1.97799 -0.407381
        -0.521884 -2.01643 -0.799501
        0.0487821 -2.16958 0.0908627
        0.516092 -1.05858 0.715493
        0.764187 -2.9881 0.441052
        -0.390474 -1.97552 0.869494
        0.2442 -1.87538 0.0366815
        0.0164206 -0.740232 -0.457232
        0.0968112 -2.88028 -0.136816
        0.441473 -2.19171 -1.0519
        -0.466723 -1.56867 -1.52807
        -0.331205 -1.58275 -0.452197
        -0.875293 -1.43945 -0.660942
        0.521156 -2.71392 1.56433
        -0.558946 -1.88515 -0.27204
        -1.09614 -1.40014 -0.189442
        -0.220967 -2.70459 -0.46002
        -0.614802 -2.81796 0.288486
        0.186841 -1.44906 -0.66511
        0.299727 -0.639163 0.206323
        1.36358 -1.86976 -0.046428
        0.290831 -1.20111 0.0231413
        0.846663 -3.3074 1.33191
        -0.175829 -1.73799 -1.29064
        0.361034 -1.51182 -0.190149
        0.187928 -2.65389 1.40541
        -1.46079 -0.672606 0.344918
        0.54003 -0.327604 -2.0733
        -0.178858 -2.17896 0.274726
        1.23528 -2.26973 -0.639413
        -0.651371 -1.74686 -0.679549
        0.223004 -0.765132 0.129915
        0.377911 -1.71743 -0.619299
        -0.472791 -1.69369 -0.217775
        0.430555 -2.45498 0.189322
        -0.403139 -1.51917 0.147477
        -0.717556 -1.82729 0.388507
        0.0795938 -2.1188 0.381624
        -0.171537 -1.76159 0.768952
        0.0481349 -1.42796 -0.382999
        0.552349 -1.95047 0.384776
        0.79518 -1.69683 -0.804805
        0.243575 -1.5042 -0.594757
        0.219385 -1.63397 -1.15369
        -0.439022 -2.01707 1.19785
        0.189104 -1.46266 0.819541
        -0.464978 -1.08265 -0.39955
        0.688869 -0.66231 -1.03005
        -0.0413375 -1.59636 -0.55591
        0.578715 -0.833672 -1.71005
        -0.961962 0.014082 0.511288
        -1.19512 -1.08452 0.515226
        -0.998195 -1.32211 1.57041
        -0.459576 -2.21154 -0.271792
        0.143418 -1.07098 0.347611
        -0.134596 -0.304247 0.37996
        0.163739 -1.7073 -0.31106
        -0.806239 -1.69641 0.398678
        0.548844 -2.19999 -0.422641
        -1.29835 -1.03728 -0.802307
        -1.37676 -0.609642 -1.66594
        0.776622 -1.47469 0.140776
        -0.170575 -1.85295 -0.381252
        0.81291 -2.07437 -0.264431
        -0.636042 -1.00653 -0.665443
        -0.797585 -2.28435 -0.172268
        0.0204136 -2.18244 -0.228513
        1.41159 -1.31366 0.614219
        0.469432 -1.55746 -0.351077
        1.09974 -2.96334 0.201951
        -0.235996 -1.05191 -0.130066
        -0.0607451 0.0152214 -1.01215
        -0.274723 -1.75472 -0.554101
        0.954211 -0.684534 0.116397
        1.01324 -0.878305 -0.346209
        0.61619 -2.26769 0.278231
        0.0346787 -0.660189 1.33321
        -0.848885 -0.938676 -0.0499671
        0.211722 -1.58098 -0.926662
        0.320088 -2.28194 -0.288657
        -1.31307 -1.88934 -1.23836
        0.0468796 -1.18845 0.438672
        0.404204 -1.30599 0.0340486
        0.126836 -0.937591 -0.74529
        -1.62132 -2.55749 -0.321732
        0.181184 -2.49674 0.441378
        -1.12119 -0.608374 1.06392
        0.949698 -1.94543 -1.05829
        0.185947 -3.49939 1.18458
        0.177289 -3.07981 -0.989247
        1.22668 -1.60367 0.107828
        0.39851 -0.377923 -1.93266
        0.532916 -1.09697 1.17723
        -0.718805 -2.51562 0.451721
        -0.549203 -1.92914 -0.171871
        -0.110744 -1.74906 -0.556877
        0.301397 -1.41792 -0.965975
        -0.464397 -0.602086 0.688402
        -0.191033 -1.57736 -0.468133
        0.371228 -1.44514 0.981436
        1.28725 -1.42303 0.697732
        -0.933511 -1.37968 0.76262
        0.455971 -1.48018 -1.20902
        0.0683765 -1.62488 -0.408363
        0.557976 -0.820646 -1.39185
        1.55424 -1.08741 -0.781704
        1.02985 -1.41019 0.246758
        0.587146 -2.44874 0.243598
        1.10345 -1.11723 -0.284791
        -0.986881 -0.683711 -0.0813038
        -2.25696 -0.660124 0.462548
        -0.128622 -0.284164 0.691423
        0.230383 -0.977438 0.0338466
        -0.782236 -1.39014 -0.260985
        0.148698 -1.31511 0.0581671
        0.682074 -0.135751 0.00837787
        -1.07439 -1.96441 0.217221
        0.318722 -1.24725 0.115484
        1.33489 -1.61178 0.163693
        -0.297896 -0.70655 -0.0718969
        1.22695 0.566957 -0.796254
        -0.0576105 -0.160609 1.03086
        0.303197 -0.763927 0.0313046
        0.160367 -0.35705 -0.547319
        0.110592 0.361392 -0.209631
        -0.290336 -0.514153 0.27924
        0.385068 -0.956548 1.16683
        -0.543524 0.293964 0.260764
        1.10902 -0.972549 1.51388
        0.0926309 1.03341 -0.421351
        -0.352712 0.223331 -0.752273
        -0.106843 0.0146124 0.842414
        0.745605 1.01301 0.649106
        -0.882982 -0.79936 -1.35831
        0.106353 0.982072 -0.00332437
        0.184212 -1.79154 -0.239244
        0.664127 1.03136 -0.805283
        -0.676454 -0.618048 -0.0231187
        -0.820104 -2.23757 0.372703
        1.01349 -2.10209 0.00672685
        0.431392 0.489892 0.415584
        0.289561 -1.42988 0.0230827
        0.327335 -1.08609 0.565803
        0.184416 -1.29544 -0.00424002
        0.724403 -0.60124 0.994806
        1.54292 0.583471 -0.222656
        0.352462 0.289418 0.0243329
        -0.550389 -0.0441683 0.383542
        -0.154287 -0.547749 0.318246
        -0.862161 -0.777469 0.511707
        -0.337776 -0.0211976 -0.0838131
        -0.164564 -1.79257 0.442525
        -0.266611 0.144161 -0.122777
        0.0970534 -1.00204 -1.23559
        -0.13704 -1.87625 1.58207
        0.753883 -0.772893 0.9495
        -0.703377 -1.4008 0.198451
        0.34935 -0.817603 -0.841612
        -1.79551 -2.32574 2.27143
        -1.61735 0.740217 -0.160879
        -0.999506 1.33437 0.34009
        -0.403717 1.28435 0.229219
        1.0971 1.1197 0.119281
        0.118459 0.770369 0.368369
        0.100123 1.16255 0.605132
        -0.675732 -1.16184 0.174909
        -0.0698262 0.147954 1.30666
        -1.03575 0.885075 -0.037
        0.353906 0.445028 0.535334
        -0.248077 1.65918 -0.344329
        2.7706 -0.214549 -1.90991
        -1.10406 -1.12414 -1.20325
        -0.941197 0.686462 -0.793649
        -0.271102 0.0777726 0.410369
        -0.506884 0.987329 -0.693956
        -1.51925 1.66531 0.600036
        0.118622 0.918748 0.592691
        -0.417048 0.0865512 -0.272767
        -0.109984 1.00303 -0.579397
        -0.54891 1.61846 -0.109516
        -0.264634 -1.51035 -0.119747
        -0.318558 0.0926467 -0.842855
        0.314457 -0.647428 -0.882911
        0.0799089 0.214905 -0.305664
        1.0324 -0.281497 -0.462697
        -0.653569 -0.749181 0.364596
        -0.905283 1.13028 -0.309961
        -0.526296 1.05834 0.0451344
        0.732522 0.2043 -1.26023
        0.0210966 1.10879 -1.03419
        -0.510387 0.952051 0.343863
        0.241004 0.483659 -0.768387
        -0.353198 0.961403 0.182309
        -0.741317 1.44009 -0.45278
        0.0475808 -0.489465 -0.555574
        -0.548602 1.6991 -1.21789
        0.561954 0.899452 -0.0817762
        0.0899884 2.42705 0.345276
        0.283171 -1.5454 -0.0952917
        -0.395997 0.475308 -0.153481
        1.03175 0.84736 -0.147154
        0.963861 1.04147 -0.139094
        -0.785569 1.77579 -0.349113
        1.91323 0.756986 1.53529
        0.138111 -0.225489 -0.83567
        0.918482 1.39928 0.0782887
        0.337203 0.435797 -0.113026
        -0.22842 0.402852 1.02624
        0.404991 1.07457 0.879901
        2.24424 1.64516 0.978372
        1.55384 0.802537 0.480489
        -0.366891 0.731702 0.745858
        1.20769 2.02797 1.33542
        1.10845 0.796038 0.481455
        1.30982 -0.290707 -0.248808
        -0.660323 0.923003 0.21436
        0.146563 0.313777 1.49975
        -0.956803 2.14695 -0.84656
        0.0993572 0.254745 -0.34523
        -0.427761 1.11882 0.352347
        -0.0720732 1.67474 -0.0118181
        0.478404 2.49813 1.30974
        -0.395892 -0.121066 0.146796
        -0.438918 0.564749 1.14042
        0.417239 3.03767 -0.357173
        0.938925 0.223734 1.465
        0.0552996 1.3452 0.800271
        0.169206 1.26316 0.0573315
        0.971699 2.46897 0.391277
        -0.530388 1.67889 -0.118505
        1.54524 1.0727 0.0487596
        -1.01689 1.86942 -1.3293
        -0.497954 1.01291 0.201571
        -1.19714 1.94764 -0.859002
        -1.20196 0.447518 0.32056
        -0.60154 2.18286 0.310642
        -0.50978 2.69825 -0.796837
        0.0968272 3.17718 -0.581116
        -0.986813 1.78374 0.218102
        0.470616 1.96853 0.47273
        -0.472354 1.81728 -0.811504
        -0.93068 2.69564 1.22298
        0.146269 1.61184 0.241005
        -0.377761 2.2778 1.05794
        -0.223545 0.692649 0.193144
        -0.192917 2.08548 0.434015
        0.0798177 2.18546 -0.145985
        1.43721 1.65655 0.38173
        -1.15143 2.95856 0.330768
        -0.799365 1.69022 -0.897504
        0.333885 1.40159 0.609873
        -0.512692 2.4683 -0.461976
        0.0934694 1.19216 0.0488987
        -0.23934 2.25018 0.510663
        -0.190551 2.4239 -0.57783
        0.090291 0.300153 1.6579
        0.176337 0.563211 0.134426
        0.15367 1.10149 0.193426
        0.668664 0.938802 -0.0192178
        0.599265 0.850583 0.282291
        0.927667 1.78328 -0.310639
        -0.404456 1.86311 -0.360221
        -0.789344 1.6944 0.373514
        -1.03568 2.63157 1.1115
        0.642343 2.15623 -0.054992
        -0.24739 0.83696 -0.21906
        0.309998 1.80367 0.148538
        0.211713 1.10886 1.01533
        0.455073 2.11076 -1.05577
        0.587393 0.88466 1.02582
        1.02482 1.94172 -1.94721
        0.709639 2.0709 0.640392
        -0.89842 2.0071 0.295746
        -0.112764 1.42562 0.588471
        0.124669 0.985141 0.306492
        0.176244 2.02768 -0.0881016
        0.349286 1.44286 1.08753
        0.497098 0.999251 -0.892455
        0.693957 1.23806 0.771154
        0.947704 1.1779 -0.337111
        0.19107 1.16627 0.942227
        0.126937 1.73242 0.167949
        -0.394244 2.44855 -0.479185
        -0.668385 2.0962 -0.160957
        0.201373 1.48107 -0.499696
        0.0361799 2.0207 -0.358414
        0.0359158 2.78183 1.09987
        0.251993 2.39254 0.164023
        0.171888 1.02921 -0.997662
        -0.485259 2.20079 -0.783141
        0.319201 0.665328 1.32846
        -0.186587 2.77009 -0.282792
        -0.0354075 1.96008 0.905375
        -0.37059 2.40221 -0.922452
        -0.161057 1.37499 -0.966173
        0.17511 2.36709 0.370427
        -0.115249 1.99138 -0.258982
        0.815603 2.33139 -0.285749
        0.0337823 2.34155 -0.448669
        0.232871 2.96624 0.0814913
        -0.0728472 0.747569 -0.577681
        0.801998 1.24687 1.44556
        -1.02427 1.74863 -0.177889
        -1.05606 1.33254 -0.907194
        0.918429 1.40643 -1.12939
        -0.971152 2.11392 -0.559958
        0.294516 0.379095 -1.32487
        0.487712 2.15023 -0.773627
        0.0272638 2.57948 -0.00473387
        -0.399919 2.30326 0.964222
        -0.400109 1.60937 -0.71023
        0.0588887 1.36039 1.17826
        -0.0439915 0.693011 0.794472
        0.300477 1.71284 -0.0394963
        -0.0949235 1.15953 -0.0538663
        0.107397 2.02404 -0.451612
        -0.315754 2.03965 0.321459
        -0.645458 0.475685 0.248868
        -0.217061 2.12177 0.369297
        -0.125992 1.51558 0.456785
        -1.03353 1.89586 1.85872
        0.450357 2.32213 0.399955
        -0.717945 2.03311 1.5004
        0.088546 2.36922 -0.605072
        0.243105 1.55237 0.377222
        1.12454 2.06169 -0.55783
        -1.07085 0.438171 0.474463
        0.120416 2.02599 -0.457705
        -0.804398 0.978656 0.276145
        -0.878931 2.49565 0.213667
        -0.125572 1.56402 0.173228
        -0.366654 1.63854 -0.0453322
        0.199244 -1.03847 0.245878
        0.0846341 -0.342875 -0.138797
        -0.795652 -1.76052 -0.0761041
        0.540227 -2.16394 -1.57238
        -0.696758 -2.00543 0.384909
        -0.33399 -1.88311 0.305066
        -0.698063 -1.26547 0.364864
        -0.973877 -1.47887 0.535508
        -0.101977 -2.33103 0.521768
        -1.23312 -1.7167 0.436523
        -0.340877 -1.26038 -0.583661
        -0.0998624 -1.59461 0.463906
        0.329116 -1.08851 0.512419
        -0.0120037 -1.43482 -1.07943
        0.433436 -2.65674 -1.1156
        -0.074259 -1.23783 0.283021
        0.0198517 -1.3473 0.754835
        0.256604 -1.92216 -0.881835
        -0.80513 -0.650778 0.00114109
        -0.776902 -1.68111 0.20566
        0.114443 -0.45524 0.499852
        -0.329381 -1.26315 -0.149548
        0.745971 -0.573152 -0.186645
        -0.488816 -1.76623 -0.44876
        0.22046 -1.76091 0.877915
        0.105993 -2.17504 1.06337
        0.173094 -2.45461 0.840757
        -0.337047 -0.943115 0.223439
        -0.0536755 -2.0503 0.720369
        -1.06884 -1.57064 0.780262
        -1.29204 -1.35459 -0.134028
        -0.371562 -1.29526 -0.820616
        0.364236 -1.15333 -0.127807
        -0.673154 -2.04532 0.435409
        0.61369 -0.532447 0.440216
        -0.376132 -1.24188 1.15957
        0.185671 -2.17021 -0.615869
        -0.675558 -1.40722 -0.907893
        -0.242262 -1.0535 -0.123381
        -0.105988 -1.37714 0.876332
        -0.100747 -1.50626 -0.657506
        0.401281 -0.866812 -2.1085
        -0.229178 -1.90175 -0.612653
        -0.583375 -2.46628 0.408012
        0.612943 -1.26435 0.103253
        0.292816 -1.35921 -0.0420497
        0.401309 -1.80846 -0.735173
        0.218182 -0.785711 0.0839463
        -0.950961 -0.84004 0.466348
        0.056263 -2.40171 -0.574498
        -0.438281 -1.69498 -0.383562
        0.257219 -1.01985 1.34851
        -0.901528 -2.19256 -0.0786728
        0.0447182 -1.10701 0.038412
        0.224761 -1.79938 -0.0477987
        -0.217985 -2.31086 -0.342827
        0.354362 -1.37781 -0.395115
        -0.329097 -1.21905 1.6937
        0.347823 -0.721887 0.511483
        -0.0868767 -1.88711 -0.336655
        -0.441593 -1.42667 -0.475134
        0.0558413 -1.96827 0.107975
        0.112383 -1.21568 0.456557
        0.557674 0.191408 -0.241315
        -0.939976 -2.75544 -0.577088
        0.378295 -1.98663 0.407562
        -1.11601 -0.338496 -0.872876
        0.629406 -1.94622 1.52916
        0.114221 -2.23232 -0.214504
        0.0195873 -1.30169 0.390976
        0.314105 -2.13245 -0.425091
        -0.187734 -0.844886 -0.0354052
        -0.286949 -1.83675 -0.0400419
        0.949096 -2.32072 0.0756285
        0.725456 -1.64011 0.060541
        -0.0127072 -1.32091 1.86687
        0.574463 -1.04852 0.367148
        -0.13767 -0.585261 0.105172
        -0.445235 -1.89377 -0.455169
        0.200637 -1.24727 -0.00736993
        1.13975 -0.984646 -0.651371
        -0.838185 -2.38852 -0.0188611
        0.289189 -1.81752 0.477244
        0.519053 -2.14833 -0.265124
        -0.274389 -1.59303 -0.494504
        0.309731 -1.28311 0.955432
        0.169933 -1.39847 0.504737
        0.620859 -1.62334 -0.045918
        0.811748 -0.722809 0.439075
        -0.10219 -0.225797 0.224256
        1.23999 -1.75853 1.31075
        0.598851 -0.984228 -0.833704
        -0.295178 -1.63193 0.550934
        -0.37381 -1.49885 -0.109156
        0.142914 -1.74677 -0.261563
        0.469277 -1.81001 -0.46599
        1.02812 -2.62944 0.705188
        -0.0541816 -2.35048 -0.416393
        -0.965688 -1.14575 0.531411
        0.603367 -2.3409 -0.524442
        -0.606843 -0.255714 -0.203862
        0.31606 -2.51462 0.474968
        1.22983 -1.29289 0.0486293
        -0.658998 -1.66189 0.561363
        -0.107781 -0.344862 -0.0955822
        -0.229056 -2.30658 -0.125027
        1.43066 -1.54089 -0.130406
        -0.375611 -1.3132 -0.488583
        -0.154427 -1.93808 0.216595
        0.834056 -0.809311 -0.76458
        1.81403 -2.0534 -0.384787
        0.803105 -1.38478 -0.307438
        -0.240805 -1.2772 -0.792283
        0.248759 -1.42802 0.331513
        0.046088 -2.99819 -0.356971
        -0.21566 -1.01489 0.0254213
        0.928242 -1.29268 0.312539
        -0.169777 -1.76327 -1.24556
        0.162904 -0.557728 -0.596321
        -1.28962 -0.0574193 0.217232
        0.663735 -0.235476 8.31918e-05
        -0.0204008 -1.36511 2.14249
        0.817098 -0.289904 1.7503
        -0.927516 -0.43482 -1.26772
        -0.13197 -0.937112 -0.309645
        0.187795 1.12618 0.17927
        0.526897 -0.0626912 0.0968345
        -0.170948 0.131223 -0.105351
        -0.114925 -1.24431 -1.91727
        -1.50605 -0.791505 0.214981
        0.939818 -1.77976 0.875876
        0.582779 -1.08624 0.665548
        -0.647206 -0.930694 -1.95093
        -0.223052 0.0210512 0.390341
        0.208115 0.0570198 0.161539
        -0.0267682 0.316911 -1.37936
        -0.738057 -0.137699 0.765785
        0.0769205 -1.87302 0.0161114
        -0.347836 0.837279 0.610323
        -0.305699 -1.35195 -0.390438
        -0.150366 -2.17544 -1.0509
        -0.895736 -0.910801 -0.182765
        -0.7577 0.421065 0.140566
        -0.335321 0.396224 -0.0729491
        -0.160699 -0.189405 -1.00704
        -0.695241 -0.981324 0.735095
        0.476529 -1.03088 0.18995
        0.425763 0.877288 0.411593
        0.204758 -1.00591 -0.38603
        -0.690586 0.230405 -0.29109
        0.299291 -1.26298 0.217486
        1.80428 0.0275607 -0.0565789
        0.272353 0.223133 0.66018
        -0.624565 0.558952 -0.112146
        -0.122597 -2.5493 0.966767
        2.0504 -1.61875 -0.381416
        0.3378 -1.29034 -0.341421
        -0.0734285 -1.40997 -0.203646
        0.0538528 -0.620014 -0.0293351
        -0.121478 -0.523987 -1.44222
        0.223125 -0.373016 -0.217541
        1.0337 1.0758 0.101698
        1.45878 -0.336582 -0.981827
        0.952551 -0.126948 0.166028
        0.547862 0.202536 0.301742
        0.389549 -1.59659 0.377064
        -0.356911 0.499038 0.43822
        1.54729 -1.50755 0.315201
        0.906109 -0.854629 -2.09394
        0.109505 -1.49005 -1.70538
        0.955126 -1.62308 -0.633902
        1.5599 -0.186542 -1.51092
        0.130508 0.0723775 -0.0766724
        0.023772 -2.02359 0.859184
        -1.07277 -1.46435 0.563259
        0.0764462 -1.89836 -0.318735
        1.23653 0.254359 0.864672
        0.0654318 -1.42508 0.167816
        0.210261 -0.494046 -0.870902
        0.228999 -0.907758 -1.615
        0.0447864 -0.146554 0.347667
        1.24638 -0.913042 -0.468038
        0.396813 -0.554715 -0.235962
        -0.121395 -0.998553 0.370299
        0.817861 -1.21669 -1.05717
        1.01099 -0.488734 0.536787
        -0.458346 -0.208493 1.73859
        -1.34243 0.945054 -0.244089
        -0.0973895 -0.0932676 -0.492091
        0.0638642 0.960895 0.959621
        0.42711 -1.41468 0.125661
        -0.481414 1.14484 0.644827
        -0.20413 -0.0868448 0.559983
        0.113546 2.40134 -1.46211
        -0.708818 1.83592 -0.0943876
        -0.0179049 1.83448 0.795579
        -0.452603 2.32744 -1.71869
        -0.710085 2.25989 0.508834
        -0.355092 -1.29978 1.39534
        -1.00119 0.867256 -0.377197
        -2.23421 0.867078 -1.06303
        -0.597479 2.5525 -1.4646
        0.203342 1.41427 0.833621
        -0.666939 2.26407 0.430311
        0.652162 2.04415 -0.345363
        0.861035 2.85778 -1.06476
        -0.0543816 1.11064 -0.1553
        -0.102533 -1.39512 -0.371895
        -0.446111 0.328995 -1.11684
        -0.239938 1.67334 -0.0040967
        -0.271257 -0.146784 0.932932
        0.956481 0.00523486 1.53896
        -0.439046 1.34451 0.177154
        -1.06719 -0.597312 -0.401111
        -0.493888 0.25438 0.439377
        -1.12604 -0.144874 -1.84141
        1.16454 1.81572 -1.31054
        0.446827 3.15194 0.346647
        -0.258626 -0.155043 -0.729934
        -0.0721921 1.17061 -0.289506
        -0.280081 0.801367 -0.0367599
        -1.31506 -0.0749773 -1.27171
        1.04833 2.52872 -1.34768
        1.08795 1.39396 -0.184957
        -0.205641 -0.318029 -0.299631
        -0.188021 1.83568 -1.30069
        -0.786941 0.491599 1.58064
        0.224739 2.6962 0.394086
        -0.235071 2.47775 -0.181114
        0.873207 2.01145 0.215194
        0.841833 -0.321433 0.750528
        0.806284 0.163618 -0.603762
        -0.798078 1.23142 -0.145966
        0.618936 0.111799 -0.14978
        0.40089 1.04398 -1.50219
        0.601495 1.61786 0.778185
        -0.361735 0.66741 -0.271296
        -1.53152 0.961461 -0.79829
        -0.577346 1.89984 -0.797541
        -2.29367 2.00624 -0.513433
        -0.76481 1.71918 0.296616
        -0.01183 1.50693 0.782377
        -0.133577 2.05541 0.264671
        0.207968 1.81737 -1.48824
        1.63533 0.959364 -0.974368
        -0.938299 1.19131 -0.435042
        -0.0817637 1.10539 -0.474092
        -0.673066 0.77131 0.692633
        0.504935 1.80939 0.222198
        0.463436 1.36706 -1.09387
        0.214408 1.84134 0.769816
        0.43677 1.01055 -1.33992
        -0.847215 1.06193 -1.30087
        0.183409 1.86806 -0.0610227
        -0.150262 1.85927 0.569135
        -0.175612 1.82692 -0.82551
        -0.940124 2.89506 1.43709
        0.251276 1.53014 -0.258725
        -0.57665 0.648198 0.219219
        0.502152 1.58449 0.946443
        0.402323 1.90265 0.925278
        0.280626 1.04929 -0.467323
        -0.689799 1.83728 -0.179452
        0.831542 1.36126 0.0968601
        0.604113 1.4359 0.0779488
        -0.696617 1.65166 -0.147533
        -1.45317 0.780937 -0.206467
        -0.106947 1.60075 -0.28866
        -1.57267 1.97779 1.89985
        -1.59397 1.57106 -0.682125
        -0.440249 1.68617 -0.0674034
        -0.613971 1.90151 -0.892922
        0.368024 1.15466 -0.755851
        0.487189 0.454716 -0.635588
        0.156648 1.15662 -0.999029
        -0.873901 0.144659 -0.14342
        -0.146851 2.60028 -0.945131
        0.0544176 2.66448 -0.879561
        -0.251186 3.00481 0.96759
        1.28912 -0.324434 0.179235
        0.044264 0.648564 0.305577
        -0.421348 1.27776 -0.505147
        -0.0893229 1.40327 -0.45545
        -1.01761 1.56666 -0.371352
        -0.187955 1.8639 0.313925
        -0.111088 2.83628 -0.0837488
        -0.365152 1.48942 -0.955566
        0.614346 2.06557 0.543016
        -0.142191 1.46604 -1.15479
        0.242217 0.584942 -0.818708
        0.886894 0.309295 -0.835783
        0.125903 1.13434 0.798707
        0.0693662 1.66252 0.212467
        -0.747862 0.519148 0.032171
        0.876503 0.707043 -1.01707
        -0.201373 2.05705 1.16042
        -0.35324 2.78451 -1.39427
        -0.201312 0.922838 -0.269417
        0.0684237 1.6024 -0.130448
        0.183309 1.16915 -0.340534
        -0.152999 1.76979 -0.553616
        -1.08945 2.18845 -2.26321
        1.39328 0.818524 -0.380291
        -0.074383 1.19813 -0.667738
        0.773886 1.16816 -0.733826
        0.489172 0.675414 -0.956323
        -0.654144 2.10946 0.503205
        0.665505 1.36294 -0.606439
        0.185261 0.372354 0.211475
        0.264573 0.956648 -0.045893
        -0.0667306 1.15684 -0.236712
        1.02722 1.46007 -0.548147
        -0.690535 0.594475 -0.0882213
        0.568095 1.83016 -0.523498
        0.208748 1.24949 -1.4925
        1.43417 1.09951 -0.918484
        1.17081 1.84252 -1.16436
        -1.12811 0.359757 0.854856
        1.75824 1.7605 -0.47021
        0.788212 1.16519 0.872631
        -0.11856 1.7817 -1.01037
        1.0898 1.70212 0.127849
        -0.440447 1.26666 -1.00786
        -0.231293 1.72805 0.245285
        0.27501 0.597321 -0.510626
        0.70571 1.14545 0.522688
        0.489306 1.6303 0.341795
        -0.480617 2.27315 0.188037
        -0.576373 2.60979 0.0816603
        0.446858 1.86479 -0.463816
        0.909808 2.13883 0.876265
        -0.435022 0.814957 -0.102174
        -0.675775 1.46661 -1.3255
        -0.8271 0.345594 -0.415533
        0.491373 1.51891 0.122321
        -0.281978 1.28841 -0.786799
        -2.06319 0.574992 -0.393881
        -0.154179 1.45289 0.659481
        -0.00735218 0.832063 0.228662
        0.252708 1.23407 -0.918365
        0.436585 0.900216 0.127969
        -0.331152 1.06425 -0.625997
        -0.402194 -0.211882 -1.04986
        -0.028282 0.979621 0.526889
        0.251184 1.42743 0.780886
        -0.200387 1.52136 -0.0155323
        0.258561 0.469309 0.737465
        0.510384 1.20349 -1.02618
        0.767369 0.68791 0.343745
        0.548868 0.82794 -0.147183
        0.226543 1.21649 1.16084
        -0.23615 1.63646 -0.421667
        0.541298 1.82402 -0.110035
        -0.353853 1.23702 -0.469763
        0.0739124 2.06869 -0.199475
        0.385759 1.7935 0.133192
        0.482527 0.999422 0.948402
        -1.24563 0.666839 0.447221
        1.38208 1.48363 0.32737
        -0.19432 2.52689 0.471149
        0.896071 1.55322 0.204134
        0.337251 -1.40178 -0.0189527
        0.798883 -1.37525 0.114989
        -0.734647 -1.85802 0.00984682
        -0.212921 -1.96174 0.0470717
        0.410385 -1.60983 0.0514248
        -0.319702 -1.07603 -1.3677
        -0.573908 -1.59785 -0.192787
        1.27876 -1.92864 0.0816461
        0.145855 -0.932211 -0.55878
        -0.46604 -0.845615 -0.6447
        1.24548 -1.50851 0.297387
        -0.039928 -1.35043 -0.736749
        -1.42297 -1.76247 0.0519673
        -0.715595 -0.804967 -1.00054
        0.15184 -1.77278 -0.106606
        -0.124611 -2.4092 0.562403
        1.00654 -1.6931 0.464158
        -1.60126 -1.97234 0.549633
        0.0844244 -2.10629 -0.633904
        0.125616 -3.25643 0.258682
        -1.29094 -0.502374 0.178745
        0.0407847 -1.24985 0.345696
        -0.347738 -1.67556 -0.30197
        0.285355 -0.625249 -0.0559801
        -1.03024 -1.80488 0.331528
        -0.0385745 -1.51822 0.556094
        -0.0684237 -1.6024 0.130448
        0.667561 -2.02838 0.13259
        -0.405984 -2.09292 -0.318681
        -0.824396 -2.06663 1.01868
        -1.01314 -1.64617 -0.964179
        0.564959 -0.508329 0.589972
        -0.0963007 -1.59159 -0.836864
        -0.495241 -1.17788 -0.585414
        0.463138 -2.53873 -0.511309
        0.146851 -2.60028 0.945131
        0.120403 -1.34875 0.323598
        -0.494069 -0.668153 -0.876663
        0.537949 -1.27644 -0.161125
        1.6303 -2.22399 -0.735683
        -1.36271 -2.7293 0.149669
        -0.370883 -1.54209 -0.201938
        -0.468677 -1.28565 -1.8808
        0.914671 -1.31671 0.732021
        0.140757 -2.51345 -0.439997
        0.18161 -1.85598 -0.547565
        -1.48016 -2.59122 0.294008
        -0.844041 -2.31389 -0.810286
        -0.00286098 -0.270172 0.45859
        -1.06077 -1.03328 -0.634339
        -1.98633 -2.07818 0.0385247
        -0.158462 -1.48967 -0.899002
        -0.980757 -0.82349 -0.0401945
        0.0302753 -0.87163 -1.51135
        0.481132 -1.97548 0.00885062
        1.05634 -0.834575 0.452861
        0.281978 -1.28841 0.786799
        -0.0219691 -2.01535 0.582617
        -0.922497 -1.29829 0.247037
        -0.262533 -1.9107 0.060846
        -0.342661 -2.93093 -0.579817
        0.0659351 -1.61509 0.486474
        0.79331 -1.18679 -0.286463
        -0.264573 -0.956648 0.045893
        -0.572146 -0.195177 -0.31382
        -0.420053 -0.953162 -0.106457
        0.805751 -1.55337 -0.191873
        -0.30129 -3.13212 0.330976
        -0.708081 -1.98274 -0.276944
        -0.461274 -1.2135 -0.777553
        -0.983731 -1.63183 -0.713391
        -0.314763 -1.65707 0.540152
        -1.03423 -1.74596 0.544495
        -1.01194 -2.44364 -0.398286
        -0.267811 -1.57054 0.572298
        0.0161423 -1.44566 0.0566718
        0.0673745 -1.28729 0.134786
        0.81009 -0.269623 0.896501
        0.769886 -1.87151 0.652743
        1.30422 -0.817333 -0.272925
        0.111737 -1.83604 0.0483396
        0.80572 -2.38846 0.473224
        0.553638 -1.10525 0.73532
        0.654126 -0.942339 0.0830319
        -1.22594 -1.38971 0.258155
        0.944227 -3.27726 -0.788721
        0.250469 -1.52273 0.449775
        -0.644673 -1.63602 -0.243542
        0.769346 -1.49414 -0.929826
        0.546624 -3.18623 0.212504
        0.717978 -2.10612 -0.409815
        -0.893517 -1.77182 -0.216003
        -0.504935 -1.80939 -0.222198
        0.479665 -2.63373 -1.36062
        -0.979964 -0.829012 0.296672
        -0.723197 -2.11281 0.329934
        1.69112 -1.85526 -0.379734
        -0.548975 -0.42388 -1.28703
        2.25685 -2.40594 -1.87468
        1.46757 -1.80604 -0.101619
        0.808701 -1.02216 -0.204873
        0.752163 -0.308833 -0.094341
        -0.801547 -2.10112 -0.40861
        0.0294616 -0.800503 -0.0813896
        1.19259 -0.971536 0.225673
        0.970027 -2.92606 0.381149
        -0.852067 -1.61739 -0.162296
        -0.737163 -1.16533 -0.923474
        -0.420208 -1.14458 -0.0927284
        -0.261298 -1.24009 -0.853708
        0.877688 -0.866423 -0.355939
        0.120861 -1.53565 -0.00891202
        0.238962 -1.89975 0.0911584
        1.4063 -1.74673 -0.37953