<?xml version="1.0" encoding="UTF-8" standalone="no" ?>
<VTKFile byte_order="LittleEndian" type="UnstructuredGrid" version="0.1">
  <UnstructuredGrid>
    <Piece NumberOfCells="0" NumberOfPoints="1764">
      <PointData>
        <DataArray Name="velocities" NumberOfComponents="3" format="ascii" type="Float32">
        0.406652 -1.54484 -0.829352
        0.0568271 -2.26019 0.115678
        0.643495 -0.763884 0.947104
        1.18739 -1.08677 0.052015
        -0.302087 -0.985916 0.185549
        0.610904 -1.06805 0.601425
        0.00892874 -2.00187 -0.122225
        -0.240604 -2.07311 -0.186947
        -0.0103993 -1.34757 0.1614
        -0.0126588 -0.0313682 0.427546
        -0.362786 -0.838155 0.551896
        -0.120182 -1.23562 -0.757189
        1.71632 0.7832 1.45595
        -0.645305 -2.06764 -0.0553973
        0.0771616 -0.309333 -0.746942
        -1.31704 -0.952973 -0.819417
        -0.539119 -2.31495 -1.29942
        0.311989 -1.20705 0.40943
        0.298655 -0.412151 -0.139477
        0.699218 -0.478491 0.447301
        -0.764995 -0.185438 1.00654
        0.198175 -2.23437 0.721874
        -0.0174529 -0.011696 0.732601
        0.150405 -1.13588 1.00157
        -0.401957 -1.55364 -0.22273
        0.836259 -1.02421 -0.30115
        -0.397515 -1.65717 -0.698155
        0.805669 -0.560756 1.59657
        -0.0945325 -1.64758 -0.143359
        0.568431 -2.00681 0.766616
        -0.825726 -2.69905 -0.503866
        0.659018 -1.92771 -0.401653
        -0.376165 -0.82076 -0.10674
        -0.00690502 -1.80261 0.730687
        -0.447523 -0.531228 -0.833465
        -0.37044 -2.54408 0.15377
        -0.745767 -1.43956 1.67268
        -0.867738 -0.424574 0.329879
        0.37582 -2.90221 0.96381
        -0.464807 0.468244 -0.00755164
        -1.61146 -1.37276 -0.950142
        1.84866 -1.11757 -0.402175
        0.133819 -1.323 0.266721
        0.938425 -1.99965 -0.515469
        -2.25792 -1.12554 -0.716234
        -0.243622 -0.599152 -0.066931
        -1.05911 -1.49872 -0.0291522
        -0.359611 -0.981013 0.863581
        2.02589 -1.43286 0.140758
        1.76437 -1.09155 1.42101
        -0.0900397 -1.38671 0.0276348
        0.467604 -1.06868 0.886617
        0.747864 -0.879075 -0.143856
        -0.222214 -1.52073 0.116043
        0.659345 -0.994083 0.0596381
        0.651189 -1.82678 -1.29599
        1.54079 -0.68286 -0.349369
        -0.213031 -2.59467 0.239166
        0.244328 -0.692388 -0.94787
        0.303598 -1.41957 0.479752
        -0.360836 -0.99854 -0.071997
        0.465136 -1.28753 0.0155148
        0.545369 -0.564543 -0.638318
        -0.0436073 -2.62129 -0.124271
        0.0326479 -1.89494 0.602123
        0.204114 -2.09704 0.0741677
        -0.389213 -0.48575 0.0379573
        -0.673696 -1.49651 0.688182
        -0.0340796 -0.782136 -0.654064
        0.482187 -1.04104 0.724573
        -0.594503 -0.400718 -0.356725
        0.757277 -2.00481 0.0434339
        0.607191 -1.413 1.81211
        0.355981 -1.11825 -0.530628
        -0.390471 -0.742325 -0.613186
        1.13104 -1.17235 0.336636
        0.355288 -0.877781 0.123066
        -1.09001 -1.86483 -0.517687
        0.201443 -1.67332 0.511253
        0.410202 -0.953358 -0.504495
        -0.311713 -1.24937 0.720701
        0.722838 -1.50601 -0.138502
        0.486832 -1.56298 0.667647
        0.0335304 -2.47524 -0.646363
        -0.81524 -1.18951 -0.460862
        0.953658 -1.16334 -1.15341
        -0.000488026 -1.6742 -0.911667
        1.59309 -0.96162 0.436978
        0.322932 -2.27742 -0.355472
        1.61717 -0.487498 0.19058
        -0.496042 -1.72224 -0.717905
        -0.135981 -1.33937 -0.249214
        0.620972 -1.68515 0.715464
        0.103061 -0.357759 0.581531
        -0.525531 -1.48718 -0.182743
        0.629802 -0.361988 0.263429
        0.346439 -2.28294 -0.696981
        0.480162 -1.74621 -0.516662
        -1.24523 -1.02491 0.164198
        0.01783 -0.413377 0.320735
        -0.367177 0.0881888 -1.20878
        -1.17038 -0.958967 -0.662185
        0.237545 -1.06723 0.938045
        -0.562724 -1.38031 0.572024
        0.910665 -1.03811 0.506234
        1.18468 -0.610728 0.771645
        0.586908 -1.07485 0.71397
        0.331245 -1.96637 0.747184
        -0.671289 -2.07426 -0.61161
        -0.720508 -2.25385 -0.0281189
        1.29244 -0.961853 -0.277473
        -1.14343 -2.07406 0.0560278
        1.13939 -1.2626 0.329802
        0.433883 -2.60171 0.311221
        0.594474 -0.180436 -0.494829
        -0.513053 0.19773 -0.684337
        -0.0847498 -0.628357 -0.818538
        -0.0725413 -2.03397 -0.35569
        -0.477497 -1.59053 -0.741223
        0.4699 -0.244274 0.178621
        1.32152 -0.867328 -0.0173623
        -1.69522 -2.35487 0.971553
        -0.614751 -1.95564 0.954635
        -0.659706 -2.11879 -1.2342
        -0.914102 -0.382592 -0.199431
        -1.38607 -0.978749 0.423385
        -0.868657 -0.276351 -0.199399
        -0.0544483 -0.980999 -0.442094
        0.467312 -1.1295 -0.885401
        -0.33823 -1.94171 -0.785026
        -0.37502 -0.838264 0.420298
        1.16375 -2.90429 0.523887
        -0.251944 -1.21756 0.771143
        0.195348 -1.34584 -0.580129
        -0.463283 -1.59541 0.735357
        -1.32747 -0.545331 0.879976
        -0.472729 -1.32805 -0.368056
        -0.0536201 -1.4952 0.820242
        -0.206972 -1.74635 0.0775814
        -1.90984 -0.317906 0.815502
        1.39969 -1.4809 0.263648
        -0.984751 -1.33899 0.700798
        -0.79937 -0.810777 -0.836072
        0.0443909 -0.127631 0.330333
        0.176732 -1.18258 -0.120512
        0.202649 -1.93338 -0.631268
        0.154759 -0.378954 1.42378
        -0.300556 -0.99698 1.10571
        0.629797 -0.831466 0.795109
        -0.0592681 -0.941689 -0.674369
        -0.613464 -0.998574 -0.324834
        0.926438 -0.946665 0.47365
        -1.67287 -0.411939 0.443697
        0.390604 -0.870931 -0.56728
        -1.02405 -1.80062 1.06269
        -0.827162 -2.40762 0.309081
        1.39234 -1.11195 -1.65503
        -0.636667 -0.616423 0.112463
        0.619821 0.142722 -0.535361
        -1.3229 -1.62168 0.977901
        -0.187418 -0.815445 -1.10649
        0.103339 -0.652985 0.573218
        -0.0729329 -0.846626 0.4663
        1.10119 -0.105986 -0.630966
        -0.0229509 -0.00752858 0.338796
        0.44131 -0.992181 0.739836
        -0.293567 -1.00558 -0.113144
        0.614816 -1.36679 -0.0773709
        -1.25378 -1.04532 -0.627416
        -1.15359 -0.359711 -1.27891
        -0.866022 -2.01694 1.59769
        0.26831 -0.98778 0.390612
        1.16118 -1.30858 -0.0496991
        -1.04288 -0.608345 0.59754
        -1.61802 -2.12162 -1.01423
        -0.507066 -1.66426 0.244694
        1.03562 -1.4036 0.180557
        0.651158 0.0662846 0.367962
        0.404492 -1.767 0.260752
        -0.312167 -0.408066 0.379469
        -0.814031 -0.682446 1.21151
        -0.0288249 -1.37572 1.32395
        -0.581706 0.54468 -1.31086
        0.0341142 -1.11776 -0.0786217
        0.287844 -0.660463 2.01068
        -1.17488 -2.45867 0.299597
        1.87559 0.275852 -0.571541
        0.784758 -0.321771 -0.100399
        -0.0170957 1.47672 -0.0417923
        0.34761 1.59761 1.01641
        -0.331023 0.368943 -1.32348
        0.160705 2.38215 0.0465441
        -0.446914 -0.348185 -0.669254
        0.0531435 0.280273 0.323613
        -0.433324 0.765951 0.846245
        0.348053 0.964606 -0.622728
        1.25024 0.553068 1.46179
        -0.765541 1.24701 -0.479544
        -0.085322 0.0336317 0.876032
        0.147216 -1.15868 -0.715355
        0.181596 0.167008 0.857278
        0.997591 1.4665 -0.882852
        0.248522 1.64738 1.00331
        1.68296 0.831845 0.52527
        1.55883 1.24626 0.199953
        -0.178954 1.54322 -0.669732
        -1.25851 3.11028 1.48246
        1.54769 1.14892 -1.02666
        -0.847229 0.416232 0.94424
        -0.206339 1.00992 0.508141
        -0.691093 0.359978 -0.369328
        -0.633327 1.86695 -0.721605
        0.405202 1.64697 0.106233
        -0.22156 2.6512 1.15748
        0.682198 2.23196 -0.53528
        -0.863499 1.15753 0.0775097
        -0.317405 1.78373 0.431295
        0.344856 2.4316 -0.00383019
        1.02576 1.48914 -0.609048
        -0.407228 1.29563 0.0822984
        -1.68746 -0.463078 0.573941
        0.458243 2.39682 -0.0362379
        0.342923 1.10673 -0.493261
        0.650187 0.687914 -0.915028
        -0.0332935 1.27507 -0.326971
        0.970134 1.2661 -0.705805
        -0.264485 1.84737 0.597712
        -0.0662875 2.43875 0.820423
        0.892533 2.35894 -0.235739
        0.0603989 2.14364 0.887319
        0.902556 1.35134 -0.224425
        0.0567945 2.10303 -0.723958
        -0.318248 2.48971 0.214607
        0.830442 0.555064 0.0268076
        -0.115531 1.59825 0.0514243
        0.070376 1.52995 0.688537
        -0.00337804 1.61867 -1.29344
        0.671094 0.872447 0.0812483
        -0.967321 0.471285 -0.123209
        1.3243 -0.364569 -0.426548
        0.276091 1.37216 2.08576
        -0.387285 1.70771 -0.884905
        0.265415 1.83053 -0.411716
        -0.392408 2.05439 0.0495337
        -1.24747 2.46833 0.453925
        -0.343654 1.06904 0.396354
        -0.65916 1.26677 -0.0521365
        -0.272027 0.633833 -0.579424
        0.974875 1.10733 -0.304868
        0.126019 2.25192 0.539459
        -0.308867 0.501767 -0.37743
        0.598087 0.879386 -0.244618
        0.194199 1.29387 -0.957268
        -0.128506 1.59189 1.05197
        -1.38756 0.033694 -0.134158
        0.278612 0.801718 0.556381
        -0.772533 0.820376 -0.673522
        -0.25138 0.0218767 0.698393
        -0.453999 2.07054 0.180943
        0.00397716 1.03015 0.790402
        1.40898 1.64608 0.642043
        -0.564936 -0.0359096 0.502587
        1.25927 1.17739 0.500178
        -0.258181 1.62663 -0.0980326
        -0.0704892 1.59332 0.50766
        -0.27104 0.0538147 0.128743
        0.424751 1.59841 1.01453
        -0.0624509 1.21502 -0.252873
        -0.167207 1.52607 -0.282434
        -0.651635 1.98335 0.167297
        -0.22941 2.54409 1.15867
        -0.506828 0.97821 -0.266668
        -0.0954125 2.4119 1.23237
        -0.267133 1.65539 0.136592
        1.08845 0.857116 0.554786
        -0.426758 0.14299 -0.141825
        0.444603 1.68626 -0.979342
        0.155491 1.32977 -0.423462
        -0.0505061 0.9554 1.24419
        -1.52609 1.49659 -1.63814
        0.260854 1.81462 0.774099
        0.729204 1.27036 -0.570779
        -0.435837 1.67357 0.523421
        0.0179061 0.701111 0.256786
        -1.02106 1.35896 0.525087
        1.03487 0.822983 -0.0143123
        -0.217454 1.72382 0.830028
        -0.203545 1.73579 -0.28148
        -0.131771 1.22348 0.445577
        -0.230756 1.52675 0.184493
        0.645623 1.36461 0.46591
        0.272045 1.25352 0.362284
        0.841743 1.01598 0.342209
        0.22553 0.867947 -1.18235
        -0.251153 1.38725 -0.673294
        -0.405528 0.879492 0.287055
        0.355631 1.57818 -0.160916
        -0.47852 1.64635 0.0508434
        0.733258 1.78501 -0.184968
        0.37078 2.11217 -0.168512
        0.0743725 1.29271 0.558991
        0.749061 1.23608 -0.315217
        0.474353 2.08002 0.0254706
        -0.587871 0.978183 0.351564
        -0.0763291 1.08237 -0.926934
        -0.75487 2.34393 0.640024
        -0.423888 2.10314 1.06149
        -0.498578 0.198427 -0.472148
        1.12044 0.869732 0.756034
        0.20262 2.50015 -0.553078
        -0.481768 0.36433 -0.646023
        -0.328367 1.01502 0.505355
        -0.855974 2.18234 -0.720093
        -0.679332 2.02369 -0.18553
        -1.76327 1.78375 -1.31762
        -0.365606 0.976852 -0.200783
        0.376033 1.63092 0.790381
        0.209566 1.4662 -0.187189
        0.39247 2.30665 -0.921267
        -0.521157 2.40709 -0.389512
        0.943669 1.59407 -0.19439
        -0.531288 1.51835 0.58145
        1.81007 0.926079 1.44118
        -0.671941 1.9097 -0.467737
        0.739415 0.909188 -1.12726
        -1.06623 0.76842 -0.823932
        0.373767 -0.184793 0.842333
        0.228764 1.60895 0.180387
        0.334056 1.5593 -1.40091
        -1.74903 2.31179 0.0427464
        0.389455 0.644032 0.0910011
        -1.40333 1.60327 -0.471417
        -0.460072 1.89347 0.238158
        -0.468767 2.32703 -0.878275
        0.562678 1.16762 -1.2795
        0.262054 -0.517477 -0.488988
        0.6917 0.646662 0.039845
        -0.810743 0.729897 -0.146853
        0.417942 0.595363 0.303714
        0.106871 1.02439 -0.251749
        1.19685 1.29388 0.00238949
        -0.816756 0.502481 1.21996
        0.561559 2.05204 0.772391
        -0.0440334 0.51591 -0.442386
        0.599885 1.95334 -0.925831
        0.314898 -0.0515631 0.237689
        0.51056 1.22074 -0.429534
        0.278817 1.16512 -0.961344
        -1.12063 1.34804 1.20166
        -0.433174 0.674085 -0.0903629
        -0.0279805 1.31145 0.755381
        0.622515 0.617876 -0.131243
        -0.356645 0.326469 0.557316
        0.354184 0.560251 0.553368
        0.644959 0.289564 0.743309
        -0.0648523 1.88041 -0.979521
        0.626523 0.833982 -0.109078
        0.0686711 0.549135 -0.32131
        0.28418 1.08817 0.664325
        -0.52147 0.57384 0.490025
        -0.428351 0.24038 -0.109586
        -0.0850282 0.0695599 -0.4942
        -0.301075 1.45143 -0.511328
        0.168306 1.29037 0.304182
        -0.222739 1.80522 -0.869705
        -1.16221 1.0899 -0.186213
        1.22601 -0.47721 -0.201503
        -1.05524 0.8811 -0.413427
        0.170676 1.96317 0.478022
        -0.118257 0.692682 0.058387
        0.115602 1.65887 -1.10428
        -0.141559 1.56779 -1.47617
        -0.455463 -0.355025 0.176417
        -0.129477 -1.64396 -0.530045
        -0.0422289 -2.33649 -0.702985
        0.414247 -1.21426 0.360076
        1.31674 -1.11621 -0.377558
        -0.0190999 -1.31186 -0.0885357
        0.568433 -2.24816 -0.768915
        -0.81275 -1.49185 -1.53049
        -2.14918 -0.964702 0.610191
        0.528433 -1.01231 -0.265196
        -0.147023 -2.48354 0.0138295
        0.257928 -0.303442 -0.94897
        0.256781 -1.65037 0.34422
        1.18913 -2.09846 -0.186747
        -0.0396391 -2.11919 -0.419788
        -1.03524 -0.398498 -0.560005
        0.246896 -0.955297 0.124573
        -0.91025 -1.82215 0.172772
        -0.106102 -1.29579 -0.188949
        -0.737047 -2.05506 0.434949
        -0.00851964 -1.77773 -0.267803
        0.107214 -1.35856 -0.271242
        0.170247 -1.49924 -0.360804
        0.345078 -2.08655 -0.669321
        -0.642035 -1.90499 0.16593
        -1.23118 -1.25348 -0.630904
        0.700749 -2.10568 0.183017
        1.60788 -1.25452 -0.467341
        0.501735 -3.08139 0.334748
        -1.47989 -1.29614 -1.33127
        -0.576931 -1.86606 -0.37274
        0.83005 -0.653111 -0.201662
        1.33813 -0.826466 1.50288
        -0.868287 -1.62413 0.536467
        0.829843 -0.235692 -0.246318
        0.68861 -3.04558 -1.1929
        -0.372216 -2.38078 -0.167863
        -1.40174 -1.51085 -0.500365
        -0.209339 -1.27931 -1.16282
        0.183114 -0.0498569 -0.133452
        -0.780484 -0.249192 -0.22732
        0.196957 -0.684088 1.59439
        -0.897785 -1.91506 0.686284
        -1.36334 -3.12867 0.278637
        -0.588753 -1.59652 0.357011
        -0.16931 -1.39261 0.760516
        -0.358248 -2.02716 -0.0430591
        1.63291 -1.08164 -0.893587
        0.312615 -0.97935 0.477034
        -1.14187 -0.87806 1.28578
        0.439221 -1.46407 0.0326101
        -0.328908 -0.460527 -0.189934
        -1.20539 -1.94182 0.318857
        -0.0997416 -1.18379 -0.34481
        -0.724335 -0.724035 -0.0501649
        0.738523 -0.295182 -1.02719
        0.625885 -1.88158 0.276336
        1.0393 -1.98658 0.573696
        -0.749267 -0.708194 0.396079
        -0.532354 -1.81001 0.381852
        -0.0872295 -0.779514 0.393253
        -1.42581 -1.02244 -0.807805
        -0.543086 -1.65032 0.294656
        0.755579 -1.43211 -1.57522
        -0.424089 -0.733865 0.820075
        -0.147379 -1.22964 0.209943
        -0.685988 -1.22887 -0.85384
        -0.359938 -1.36228 -1.16991
        -0.864252 -1.16767 -0.50367
        0.659595 -1.22418 0.0166667
        0.47738 -2.57421 0.336286
        0.0760305 -0.302939 -0.168348
        -0.514899 -1.37888 -0.953103
        -0.0153307 0.435968 -0.204489
        1.14329 -0.932098 -0.72263
        -0.41154 -0.7047 -1.25217
        -1.4145 -2.19358 -1.31115
        -0.0295754 -1.04219 0.367651
        -0.358469 -1.73069 -0.203315
        0.553563 -0.915828 0.816849
        0.929203 -0.881361 0.130341
        -0.464386 -1.2956 -0.843625
        0.794182 -2.34829 -0.63485
        -0.068616 -0.758723 0.34811
        -0.81107 -0.993253 -0.476165
        -0.668662 -1.39719 -0.224647
        0.233335 -0.767709 -0.610051
        0.309749 -1.27704 -0.829795
        0.844261 -2.02841 0.892224
        -0.890502 -1.84483 -0.0614649
        1.28136 -0.914496 -0.542022
        1.23101 -0.835421 0.970528
        -0.0125895 -1.72077 -0.175613
        -0.34008 -0.77803 -1.36101
        0.507621 -0.610066 0.284058
        1.32471 -1.22542 -0.986789
        0.902872 -1.09894 -0.019281
        -0.201761 -1.94445 0.678946
        -0.187406 -0.356471 -1.09982
        -0.23464 -2.18954 -0.678925
        -0.883986 -2.14103 -0.30459
        -0.282199 -0.779297 0.663438
        -0.0515833 -3.30234 -0.947921
        0.731142 -1.83451 0.0920886
        0.830958 -0.33672 0.763609
        1.34434 -0.868976 -0.19911
        -1.22106 -1.69972 0.371838
        -0.495649 -0.719184 0.363743
        1.33587 -2.55222 0.992049
        0.424526 0.386317 -1.13304
        -0.293594 -0.448135 -0.0871897
        0.471671 -1.09784 -1.07586
        -0.44723 -0.157552 -0.385797
        -1.09477 -0.779372 -0.0299078
        -0.353573 -1.4862 -0.594079
        -0.0401385 -1.30228 -0.748015
        0.684445 -0.985703 -0.0433978
        1.50493 -0.644471 -0.316604
        -0.441393 -2.25688 0.237673
        1.39744 -0.566158 -0.257225
        -0.456969 -0.111953 -1.23011
        0.063502 -1.83078 0.993249
        0.248629 -1.47937 -0.306048
        0.491287 -0.580059 -0.0708892
        1.47742 -0.765588 -0.705054
        1.52987 0.425921 1.03424
        -0.939927 -1.4626 0.539591
        -2.03467 -1.0771 -0.681331
        0.748187 -1.53374 -0.356304
        0.337606 -1.16415 -1.14728
        -0.156459 -1.08129 0.23111
        -0.103324 -2.24687 -0.254787
        -0.0870933 -0.885853 -0.00743607
        0.0214058 -1.94423 0.0228485
        -0.168077 -1.71555 -0.501856
        1.35445 -2.17131 0.322326
        0.182269 -2.37315 -1.51857
        -0.0668085 -2.47532 -0.879326
        -0.771567 -0.896304 -0.422376
        -0.186742 -0.594493 -0.0333428
        -0.0751363 -1.48053 1.0542
        0.0738899 -1.59657 -1.33232
        1.15813 -1.23156 -1.09611
        -0.0139096 -2.20766 1.9198
        -0.846669 -0.320317 -1.1906
        1.0524 -1.07786 -0.450561
        0.143269 -0.609582 -0.388123
        0.635547 -0.322085 -0.0926092
        -0.241555 -1.50434 -1.42566
        0.573809 -2.16042 -1.0035
        -1.42451 -1.05695 0.517496
        0.758961 -0.80668 -0.415365
        -0.488662 -1.46561 -0.188376
        -1.50141 -1.06461 0.446715
        1.3909 -1.72025 -0.415798
        1.10794 0.204824 -0.390801
        2.01707 -2.88751 0.776173
        0.135337 -0.552245 -0.526968
        -0.477683 -1.8157 -1.11571
        -0.306974 -1.94055 0.666806
        1.04449 -0.392219 -0.857645
        -0.622691 -1.43451 0.707744
        0.194856 -1.33979 0.669587
        -0.496387 -1.15156 -0.522075
        -1.00963 -0.431367 0.345794
        -1.07951 -1.41129 -0.641459
        0.987344 -1.3249 0.0736052
        0.245252 -1.18599 -0.511813
        -1.2766 -1.11098 0.255248
        -0.149259 -2.71973 -0.315687
        -1.18655 -1.61497 1.47904
        -0.770495 -1.47753 0.0176032
        0.780845 -1.07197 0.115021
        -0.192168 -0.514871 -0.631675
        -1.32852 -0.471004 0.769901
        -0.684225 -0.857395 0.062517
        -0.810038 -0.43394 0.688651
        -0.660281 -1.38683 0.307492
        -0.709557 -0.555157 -1.99055
        -1.07363 -0.214741 0.386143
        -0.938673 -2.30138 -0.41098
        -0.156836 -1.70803 0.585152
        0.409811 -1.41637 0.23414
        -0.817649 -1.55062 -0.231975
        -0.741078 -0.91802 -0.109609
        -0.187432 0.274115 0.96743
        -0.20084 -1.45142 -0.731129
        0.111137 -0.678414 0.0857153
        -0.5984 -0.483122 1.13755
        -0.730359 -2.0743 -0.343623
        -0.153033 1.20695 -0.126414
        -0.146586 1.4046 0.452397
        -0.49641 1.29942 -0.903995
        0.666459 -1.11029 -0.381715
        0.801014 0.98801 -0.736902
        -0.934124 0.982892 0.0551414
        1.31803 -0.45717 0.915306
        -0.00925891 -0.0911627 0.950446
        1.65159 -1.1206 0.428928
        -0.361535 0.111129 -0.564701
        -0.394878 0.237225 1.14048
        -1.78597 -0.77837 1.00019
        0.0515382 0.772593 -0.247714
        -0.599777 1.45109 0.514351
        -0.403576 0.0967744 0.105093
        -0.582315 1.40381 -0.406618
        -0.154224 0.301607 1.11047
        0.943482 1.21416 0.0495477
        -0.0462201 0.636771 -0.190541
        0.0671073 0.138033 -0.577605
        -0.0563014 0.648648 -0.285495
        2.05937 0.751569 1.1948
        -1.02213 0.786059 -0.599469
        -0.298776 1.6556 0.975548
        0.839262 -0.278537 0.719938
        -0.654596 0.0399862 -1.36361
        -0.722207 0.0101261 -0.3814
        1.96972 1.22739 0.570711
        0.11957 1.44365 0.827896
        -0.994897 1.99915 0.0136809
        -1.10683 1.36203 -0.921661
        -0.150699 1.71062 -0.00607185
        1.34635 1.77545 -0.204017
        -0.426873 1.26178 0.697744
        -0.712794 -0.194689 0.46903
        0.0618436 0.811474 0.581584
        -0.833628 0.711671 -0.600617
        0.420322 0.97668 -0.0837506
        0.388068 2.1314 0.184375
        0.416743 1.48905 -0.122802
        0.226312 1.38901 -0.0210509
        0.837506 1.32569 0.797306
        0.134494 0.652275 -0.504849
        0.0393963 2.52279 0.916795
        -0.187415 3.0848 -0.616831
        -1.29844 1.23607 0.729924
        1.27356 0.589527 -0.199071
        0.48547 1.0231 0.339774
        -0.633587 0.908436 -0.265715
        0.365425 2.62009 -1.32777
        -0.926868 0.904667 -0.789521
        -0.155428 0.392651 0.8388
        -1.1873 1.69169 1.55974
        -0.714664 1.69337 -0.124396
        0.428026 0.71129 0.405287
        0.265641 1.56255 -1.26718
        -0.132235 1.15019 1.07673
        0.11692 0.614354 -0.852388
        -0.870465 1.22822 -0.940317
        -0.726201 2.38644 -0.126583
        -1.51779 1.17751 0.0101061
        0.589083 0.724745 1.51395
        0.518069 1.05436 0.967322
        0.726129 1.02155 0.734377
        0.459863 0.893205 -1.41244
        0.874489 1.59631 -0.648448
        -0.251291 2.28925 -0.983623
        1.58697 2.09155 -0.674277
        -0.159443 1.18954 0.754641
        0.604815 2.92656 -0.180191
        -1.69161 1.18921 -0.425697
        0.695858 2.15813 -0.348263
        -0.580312 1.95495 0.971221
        0.228782 1.82178 -0.303617
        -0.103376 1.42528 -0.176238
        1.25116 1.60749 -0.492682
        0.712788 1.39861 -0.54814
        0.570187 0.971675 0.581769
        0.539404 1.66871 -0.447211
        -0.658805 0.70598 0.215507
        -0.357011 0.889076 -0.9852
        -0.974564 1.75694 -0.267794
        -0.326594 1.78645 1.04045
        -1.02697 0.722049 -0.736789
        0.487536 1.45238 -1.39728
        0.218549 1.66167 -0.773819
        -0.074153 1.03095 -1.04706
        0.113978 1.21114 -0.798839
        -0.694092 1.57049 0.0564399
        0.317079 1.55786 -0.160965
        0.297837 0.726229 -0.478167
        -0.063788 1.83769 -0.572474
        -0.638629 0.436147 -1.66648
        0.0330104 0.243006 0.694756
        1.05353 1.24066 0.683283
        -1.0229 0.054003 0.112022
        -0.194493 1.46098 -0.269971
        0.233135 0.7222 -0.783736
        -0.740469 2.20644 -0.869742
        0.643871 1.768 0.608764
        -1.0026 1.48534 0.247424
        -0.00357781 1.2085 0.783634
        0.896328 1.95611 0.390532
        0.123804 1.64814 -0.000742732
        -0.658545 1.03329 1.14461
        1.09904 0.938398 -0.42895
        -1.17284 -0.0184018 0.579204
        -0.761972 0.254669 0.244928
        -0.690405 1.1278 2.152
        -1.06423 1.41083 1.3866
        0.132095 0.633792 0.365637
        0.0837719 0.871041 -0.537056
        -0.610512 0.354387 -0.371736
        -0.518608 2.46944 0.277008
        -1.27843 0.792864 1.5613
        0.152094 1.2653 0.49856
        -0.511459 0.485155 -0.538405
        0.219422 1.66611 -0.199059
        0.0429327 2.14349 0.00649177
        0.349289 0.944352 0.460869
        0.774189 1.52193 -0.952024
        -0.394232 1.50555 0.597728
        -0.110331 1.76606 0.499763
        0.876603 0.0532666 -0.40869
        0.620353 2.11668 -0.701746
        -0.185776 1.08464 0.367458
        -0.168324 1.08103 -1.29645
        0.659636 0.731926 0.695368
        -0.412336 1.10885 -0.843218
        0.644095 1.71089 0.969587
        -1.14139 1.36928 -0.255695
        1.2315 1.95211 -0.799865
        -0.728905 1.68569 0.489384
        -0.795998 2.56779 0.625091
        -0.36227 1.77913 1.68647
        -0.564208 0.904824 1.0039
        -0.0740314 1.56283 0.709345
        0.238855 2.08558 -0.116043
        -0.513397 2.09228 0.869395
        -0.7251 3.22886 -0.483542
        -0.232364 2.70256 -0.916426
        -0.22841 1.76919 -0.483397
        -0.237545 2.182 -0.611536
        -0.378041 0.56952 -0.0559496
        -0.600837 0.790205 -0.458394
        0.867804 -0.16437 0.15381
        -0.208116 0.526056 0.278134
        -0.0951108 2.05967 -0.922827
        -1.51192 2.14998 0.729132
        0.48481 2.29518 -1.85363
        0.248223 1.37967 -0.206923
        -0.372072 1.27421 0.559003
        -1.08684 1.41552 0.125057
        1.5716 0.832733 -0.906792
        -0.140956 2.60013 0.618172
        -0.0429687 0.905205 -0.576709
        -0.390741 0.173626 0.505623
        0.310698 0.747376 -0.611882
        1.18146 0.82245 -2.01344
        0.316808 0.968682 -0.164092
        -0.146696 1.77749 -0.0274783
        -0.362639 1.91086 -0.376383
        0.939613 3.48753 0.340792
        0.764981 1.96418 -0.649682
        0.0689941 1.85341 0.405899
        1.24543 0.863535 0.851986
        0.382568 1.61367 0.327338
        -0.293619 0.635399 0.234182
        -1.1475 1.92757 -0.0951189
        -1.22894 1.84974 -1.27286
        1.01633 0.667825 -0.256212
        -0.0967472 -0.71154 0.935177
        -0.361581 -2.18221 0.750587
        1.13363 -0.918821 -0.419534
        0.373635 -2.54309 -0.587536
        -0.66637 -2.14231 -0.0493321
        1.44775 -0.936693 -0.788558
        0.617351 -2.3309 0.166335
        -0.0324173 -1.05896 -0.602087
        0.354978 -1.18043 0.934945
        0.0947672 -1.58716 0.789406
        -0.0796721 -1.32207 -1.29655
        0.282634 -2.02346 0.548099
        0.170823 -1.20602 -0.649527
        -0.80022 -0.492714 -0.805517
        -0.396595 -2.93032 0.767608
        0.142072 -1.08545 0.385259
        -0.110063 -0.660849 -0.131213
        -0.0434845 -0.802785 -0.191037
        -0.979213 -0.817551 1.58283
        0.179188 -1.49347 -0.311313
        -0.70491 -1.35219 0.750123
        0.749105 -3.09804 0.758089
        1.84349 -0.615651 1.07253
        -0.548206 -1.57408 -0.314899
        -0.331851 0.464495 -0.499488
        -0.409931 -0.540752 0.434754
        0.144858 -2.43264 -0.574398
        -0.139707 -1.48574 -0.425009
        -1.10489 -1.96035 -0.142875
        0.723235 -0.179075 1.57004
        0.961064 -1.23126 -1.44999
        0.205388 -2.42081 1.41923
        -0.13333 -1.08067 -0.961593
        -0.848808 -0.980472 -0.471175
        -0.701437 -1.80659 -0.453924
        0.467304 -0.413507 0.53659
        0.380204 -1.29136 1.16931
        0.168476 -1.98145 0.127171
        -0.665252 -1.49692 0.395178
        -0.23355 -1.72038 -0.707565
        0.387417 -1.13272 0.504751
        -0.835394 -1.36781 0.147726
        1.35772 -0.774926 -0.488237
        -0.554387 -1.44809 -1.33794
        0.142978 -1.72781 -0.22325
        0.878978 -2.61152 0.199256
        0.462738 -1.38553 0.655266
        -0.755317 -1.84284 0.345724
        1.3156 -0.46289 0.570427
        0.528378 -1.01013 1.30204
        0.327238 -0.768514 0.68349
        0.288235 -0.30986 0.442797
        0.998716 -1.58077 0.312291
        -0.182422 -1.77318 -0.225955
        0.520785 -1.01617 -0.781627
        0.850817 -1.76038 0.217283
        -0.0611838 -2.13002 -1.51621
        -0.106959 -1.17542 1.35732
        -0.56838 -1.1712 -0.491214
        -0.116671 -0.78086 -1.33839
        0.325115 -0.892522 0.0472231
        -0.0980469 -1.39694 -0.182563
        -0.869804 -1.33196 -0.354693
        0.449578 -0.51332 0.880315
        -0.0117474 -0.9926 -0.054113
        -0.777594 -0.131416 -1.07836
        -0.190343 -0.410231 1.38328
        -0.733975 -1.24008 0.197081
        0.0169114 -1.83129 0.558515
        0.0804408 -0.376826 0.820124
        0.186089 -1.91932 -0.249417
        1.5517 -1.59662 1.33714
        -0.356184 -0.888996 0.698943
        0.794752 -0.817521 1.15188
        -0.905346 -2.6015 -0.356917
        1.42802 -1.7592 0.22009
        -0.302575 -0.492021 -0.15274
        0.672037 -1.6736 0.309953
        0.457397 -2.17792 0.496354
        0.189844 -0.240356 -0.440111
        -0.39432 -0.793741 0.361166
        -0.839874 -1.57169 -0.532587
        -0.722943 -2.67974 0.105192
        1.02274 -1.67899 1.02193
        -0.0270271 -1.70442 -1.19161
        0.767846 -2.14023 -0.261195
        0.582159 -1.50151 -0.479082
        -0.451941 -1.6271 -1.18313
        -0.610729 -0.348567 0.397932
        0.619646 -1.43377 -0.0183886
        0.358156 -1.04532 -0.217746
        -0.825087 -0.856093 -0.699283
        -1.34445 -1.27694 0.260146
        -1.04313 -2.30832 0.572821
        0.90211 -0.974298 0.981284
        0.337385 -2.00393 -0.415022
        -0.892614 -0.725607 -0.211379
        -0.529724 -2.4794 -0.795637
        -0.33766 -1.0489 1.31449
        -0.609001 -1.74402 0.284409
        -0.687346 -0.68036 0.249213