<?xml version="1.0" encoding="UTF-8" standalone="no" ?>
<VTKFile byte_order="LittleEndian" type="UnstructuredGrid" version="0.1">
  <UnstructuredGrid>
    <Piece NumberOfCells="0" NumberOfPoints="1764">
      <PointData>
        <DataArray Name="velocities" NumberOfComponents="3" format="ascii" type="Float32">
        -1.27952 -1.4691 -0.35655
        0.402218 -1.43833 -0.34091
        1.35508 -1.95508 0.910455
        0.60798 -1.93143 1.64411
        0.897434 -1.60488 0.00770252
        0.433004 -1.78383 -0.951526
        0.168044 -0.817958 0.12718
        1.33669 -0.86333 -0.41975
        -0.629531 -0.256589 -0.391432
        0.508371 -1.96921 0.365433
        -0.577742 -1.65926 0.238727
        -0.0975719 -0.324074 0.729497
        -1.52624 -0.696291 0.712193
        -0.0152519 -1.76037 -0.558881
        0.0160918 -1.69431 1.07266
        0.161236 -1.28066 0.176697
        -0.533779 -0.422869 -0.313147
        0.36329 -0.630976 0.0358266
        0.265842 -1.39037 -0.137273
        0.272952 -0.621659 -0.493226
        -0.0615565 -2.66075 0.134679
        -0.0532126 -1.41485 0.0854148
        -0.233875 -1.48955 0.510376
        0.872328 -1.16067 -0.612321
        -0.238138 -0.162872 -0.0902355
        -0.0704465 -2.17719 0.320648
        -0.503781 -1.25253 -0.249777
        -0.0128235 -1.13173 0.638496
        -1.12548 -2.51008 0.0148836
        0.0387416 -0.667404 0.791782
        0.044983 -0.0786828 1.63946
        -6.24918e-06 0.130725 -0.923475
        0.418973 -1.0861 -0.131356
        0.399251 -0.949812 0.662781
        -0.520403 -0.624778 1.33173
        0.687829 -1.59564 0.564012
        -0.350753 -0.386715 1.04299
        0.358686 -0.781116 0.715288
        0.276296 -1.95441 0.198962
        -0.0194863 -1.98791 0.687247
        0.023137 -1.06452 -0.248141
        -0.30132 -1.80264 0.305641
        1.08044 -1.62827 1.06146
        -1.07136 -0.460911 0.814479
        0.372839 -1.18066 -0.22893
        -0.815471 -2.0366 -0.71882
        1.50805 0.612495 0.214993
        -0.0893636 0.15398 0.241089
        0.159091 -1.10805 -0.0556984
        0.0345136 -1.44637 0.625722
        0.730694 0.186151 0.793296
        0.355634 -0.430259 1.27919
        -0.288212 -2.03641 -0.400102
        0.987436 -1.13602 0.114663
        -0.783343 -2.20083 0.47207
        -0.141235 0.157761 0.204473
        1.17881 -1.32634 -1.15244
        -0.69469 -1.55271 -0.435369
        -1.00629 -2.97118 0.43247
        -0.208899 -0.209906 -0.399682
        1.21341 -1.97733 -0.833517
        -0.659278 0.399055 -1.05012
        0.172511 -1.18175 -0.650714
        0.868461 -1.10351 0.318667
        0.232125 -0.886206 0.526866
        0.112876 -1.96816 -1.45446
        0.297109 -0.98365 0.557629
        0.528339 -0.699852 -0.271293
        -0.496434 -2.86139 -1.73528
        -0.268437 -1.62072 -0.248262
        -0.617002 -1.28268 -1.35842
        0.635838 -0.215083 0.143358
        -0.177662 -1.04673 -0.221367
        0.882331 -0.678752 0.737746
        -0.200276 -1.98846 -0.740583
        -0.246374 -0.957802 -0.129759
        0.44591 -1.21719 0.729126
        0.235126 -0.854987 -0.718012
        -0.40372 -1.17908 -1.16164
        -1.41368 -1.43893 -0.522058
        1.34138 -2.16871 -0.485198
        0.387249 -0.88408 0.101876
        0.660866 -0.718212 -0.12762
        0.843752 -1.37457 -0.37757
        -0.0730058 -1.33376 -0.544806
        0.954636 -2.01346 0.539151
        0.973929 -0.314737 0.0308923
        0.511273 -1.36343 0.59286
        -0.110137 -1.09061 0.254799
        -0.195499 -0.827932 0.196302
        -0.487709 -0.897222 0.209479
        0.154963 -1.42791 -0.840113
        -0.187666 -1.71936 0.294814
        -0.149014 -2.63233 1.1316
        0.237476 -0.0904899 0.45018
        -0.0205062 -1.27893 -0.927307
        0.34261 -1.60401 0.629523
        -1.60437 -0.185152 0.296974
        0.235104 -1.1302 -1.49389
        -1.49706 -0.914313 0.34323
        -0.5722 -1.7436 -0.398836
        -1.93418 -0.448484 0.431302
        -0.201741 -2.59281 0.204292
        0.705451 -1.75918 0.00975161
        0.347346 -0.73733 -0.368205
        0.184693 -0.667053 0.297167
        -0.385101 -0.890277 -0.960015
        -0.7375 -1.27772 -0.392814
        -0.102156 -1.04235 0.577528
        1.17147 -0.297206 -0.744919
        1.6756 0.342686 -0.246683
        0.179044 -1.89219 -0.404213
        0.246144 -0.257167 -0.950658
        -1.31343 -2.27479 0.272279
        -0.603923 -1.4953 -1.20441
        -0.382117 -1.23677 0.412709
        -0.232753 -0.842872 -0.68648
        1.03659 -1.2807 0.228385
        0.0903883 -1.80636 0.492694
        -0.854188 -0.783998 -0.403488
        0.0610052 -1.39283 0.685545
        0.560824 -1.60169 1.07418
        0.19531 -2.1337 0.267455
        0.652191 -0.73962 0.120412
        -0.603836 -0.914136 -0.63126
        -0.551976 -3.40801 0.380786
        0.381036 -1.48274 -0.621352
        0.248908 -0.599568 0.0586367
        0.436911 -1.76302 -1.00268
        1.53963 -1.36726 -0.206331
        0.120808 -2.82997 0.458025
        1.01434 -2.5377 0.0205045
        0.61173 -2.03865 0.753783
        1.67188 -2.29986 -0.4255
        -0.539348 -0.0394672 0.158721
        1.91004 0.182311 -0.584791
        -0.687937 -1.12582 1.11162
        0.355404 -0.440884 -0.0324683
        -0.123745 -1.60384 0.0119742
        0.00655034 -1.5809 0.63186
        -0.900819 -1.44074 0.820846
        -0.837786 -1.0031 1.27079
        -0.141512 -1.91992 -0.364651
        0.314375 -1.01753 -0.715862
        0.553159 0.334033 0.142247
        -1.25964 -2.23812 0.692663
        1.28822 -1.13967 -0.692067
        -0.767491 -1.45316 0.795128
        0.475876 -1.14052 0.22651
        -0.633558 -0.570435 -1.7531
        -0.71308 -0.315371 0.865481
        -0.976294 -0.276326 -0.215095
        -0.522983 -0.348918 0.555375
        1.83413 -1.87573 0.989891
        0.496673 -0.139228 -0.290984
        0.607972 -0.567357 0.222239
        0.760905 -0.0252628 0.880468
        -0.352787 0.359698 -0.672252
        -0.275301 -1.03725 0.185932
        -1.47444 -1.42574 -0.214113
        0.336098 -2.18229 0.0119737
        1.09211 -2.12604 -0.0285225
        0.161598 -0.980311 0.521251
        -1.45367 -0.836267 -0.502975
        1.13547 -1.22066 0.192425
        0.330644 -1.37608 0.813599
        -1.08001 -0.356857 -0.837026
        -0.594499 -1.65972 0.747369
        0.674214 -0.22773 0.879598
        -1.23532 -0.651239 0.368882
        -1.94732 -0.476822 0.905683
        -0.552212 -1.02784 0.438629
        -1.08281 -0.671258 -0.303442
        -1.00543 -1.43608 -0.400536
        -0.123202 -0.973005 0.252565
        0.235819 -0.340284 0.280713
        0.346944 -1.35241 0.833028
        0.642972 0.360102 -0.109279
        -0.26051 -0.858968 0.850045
        -0.471036 -0.367609 -1.00732
        -1.02281 -1.23802 -0.287543
        -0.0866009 -0.17834 -0.154356
        0.570423 -0.334914 -1.60101
        -0.647791 -1.00397 -0.0419748
        -0.478331 -0.535238 -0.0275491
        -1.20974 -0.111646 0.109222
        0.855672 -1.39094 0.389489
        -0.462146 -1.42548 -1.61608
        -0.27282 -1.38344 0.204036
        0.285709 0.253367 -0.434086
        -0.225104 -2.52882 1.39142
        0.784758 -0.321771 -0.100399
        0.490536 1.3422 -0.758592
        0.346099 0.693446 0.910878
        0.0998813 0.393562 -0.393066
        -0.738484 -0.133707 0.876748
        -0.754116 1.79562 -1.12908
        -0.0782017 0.712625 -0.0602704
        0.659265 -1.2424 -1.34127
        -0.961438 0.703927 -0.156365
        -0.45099 -0.462385 0.287025
        0.528931 -0.393232 -0.253607
        -0.41176 2.27795 0.486359
        -0.691573 1.42468 0.467983
        0.292982 0.00827746 1.20295
        1.86877 0.481095 -0.402275
        -0.0561117 0.048115 1.20613
        0.615225 0.77765 -0.177063
        0.74355 0.937831 -0.174802
        0.784556 0.257566 1.03664
        0.865796 0.242066 0.720314
        0.114866 0.981013 -0.824665
        1.55883 1.24626 0.199953
        -1.26569 1.87468 -0.486502
        0.100535 0.751177 -1.92114
        0.747198 1.11351 0.329875
        1.37482 1.28317 0.17754
        -0.137749 1.77609 -0.558109
        -0.298323 1.09002 1.62719
        0.172817 0.164963 -0.493771
        0.158213 1.19067 -0.193916
        1.58065 2.49712 0.701162
        -0.240262 1.76419 -0.332091
        0.0654882 1.02388 -0.362044
        -1.33226 2.02507 0.849816
        0.57099 0.0211908 -0.380034
        0.553343 0.256461 -0.33744
        -0.543214 1.34645 -0.423168
        0.272041 1.42232 -0.156865
        -0.727724 1.93522 -0.437089
        0.144162 1.56032 0.744182
        -0.973803 -0.196933 -0.00196129
        -1.33977 -0.551176 -0.406556
        -0.530213 1.72894 0.999528
        0.188056 2.1501 0.0656465
        0.354186 1.83755 -0.424644
        -0.0416169 -0.0881525 -0.46025
        -0.380868 0.547733 0.700912
        0.198567 1.5553 -0.449178
        0.758183 1.22065 -0.0280282
        0.957363 2.20181 -0.726696
        0.655566 1.33382 0.315337
        -0.0283045 1.68526 0.938713
        -1.13784 1.77961 -0.77112
        0.314501 1.44716 1.23958
        -0.149364 1.24217 -1.43206
        1.50265 2.03078 -0.1388
        -0.101029 1.28984 0.399597
        -0.609719 0.659457 -0.061247
        0.803596 1.65647 -0.711733
        -0.204103 0.825933 0.023422
        0.446288 1.36803 -0.533448
        -1.07805 1.53099 -1.04505
        0.546141 0.838873 0.0899253
        -0.139751 2.3962 -0.549522
        0.337655 1.36165 1.69924
        -1.19265 1.48826 -0.428123
        0.55594 1.59813 -0.0674637
        -0.203809 0.291311 0.0242462
        -0.373097 2.0323 0.204778
        -0.304494 1.20262 0.478331
        -0.398214 0.477428 -1.54248
        1.05941 1.18239 0.362156
        0.286623 1.36554 0.921589
        -0.988746 1.84396 -1.3989
        0.186885 0.714238 1.01208
        2.01436 0.243829 0.00124547
        0.468549 1.92996 -0.120563
        0.763842 0.511035 1.76837
        1.01721 1.29055 -0.906387
        -1.08837 0.14944 -0.803073
        -0.0266024 2.1312 -1.04988
        -0.592224 1.51444 0.458324
        0.411509 2.57362 0.679688
        -0.00758998 0.938829 0.963595
        0.745688 1.37569 0.363033
        -0.269073 0.175136 0.113619
        -0.0831723 1.87767 -1.60927
        -1.40522 1.17698 0.408423
        -0.275795 2.07539 -1.21366
        -0.0260867 2.05279 0.708566
        -0.0669281 2.41685 -0.925746
        0.160566 2.47319 -0.726055
        -0.702876 2.46818 1.38233
        0.215957 0.203883 -0.282676
        0.667868 1.4502 0.30147
        0.650883 1.12525 -0.142031
        0.0136583 1.48176 -0.574725
        -1.1097 0.165538 0.918955
        -0.197243 1.61654 -0.404987
        0.125307 0.556453 -0.10352
        -0.0717763 2.33994 0.115828
        0.722298 2.88408 0.242875
        -0.781962 2.63077 -0.0488636
        -0.288826 0.634526 1.3467
        0.350949 0.851732 -0.131393
        1.39752 1.82977 -0.938636
        -0.591739 0.184262 -0.478146
        0.680115 0.591963 0.489628
        -0.544902 0.328777 -0.879223
        -0.648785 1.307 -0.707374
        0.329886 1.35423 -0.386941
        0.00814179 3.47011 0.144784
        0.727458 0.683916 -0.373299
        -0.692086 1.01932 0.198772
        -0.2588 0.89298 1.64679
        -0.504379 0.875572 0.849202
        0.342107 1.04423 -0.259937
        -0.93146 1.06456 0.193464
        -0.326847 0.255543 1.12491
        -0.462232 -0.124461 0.406239
        0.13922 2.06001 0.726681
        0.664368 1.93159 -0.499301
        0.18991 1.52564 -0.661197
        -0.478763 2.4824 -0.16928
        1.15069 1.53504 0.804484
        -0.685373 3.03816 -0.700588
        0.584252 0.638856 -0.123578
        -0.0887157 2.35944 -1.41897
        -0.0911902 1.90895 0.446855
        0.495621 1.32368 -0.796754
        0.00511671 1.13999 1.10745
        0.343747 1.22746 -1.22578
        0.242269 1.21237 -0.172047
        -0.0293936 0.932729 -0.409703
        0.818861 0.960474 -0.0413713
        0.103402 2.02925 -0.564652
        0.239733 1.4739 -0.200474
        -0.515824 0.437484 0.964524
        -0.684458 2.64864 0.633471
        -0.812387 1.50241 0.53861
        -0.231069 1.45855 -0.762545
        0.458341 1.88177 0.0526476
        0.0605161 1.44851 0.636435
        -0.0561417 1.67213 0.286327
        -0.600736 1.88651 0.133838
        0.605814 2.63139 0.665984
        0.541059 1.77525 0.180084
        -1.47231 0.883458 -1.28971
        0.170967 1.19783 0.738634
        -0.354872 1.62387 0.118831
        0.584972 1.86191 0.0080117
        0.518759 1.75853 -1.34774
        -1.01843 1.32055 -0.146678
        0.237599 1.40176 0.754371
        0.0764517 1.53947 -0.476473
        1.29804 0.381095 -0.306784
        1.36482 1.78523 0.181344
        -0.0277149 1.26784 1.08602
        -0.379074 2.17204 -1.25901
        1.51632 -0.367472 -0.909808
        -1.05564 0.433622 0.0873732
        0.508191 1.19022 0.172475
        -0.392199 1.42168 -0.563234
        0.309527 0.988221 -0.131791
        -0.872985 2.56252 -0.787491
        -0.240306 2.14245 -0.81188
        0.0508449 0.998179 -0.1908
        0.612438 1.88479 -0.123146
        -0.556252 0.492776 1.12183
        -0.135345 2.2115 -1.12208
        -0.286763 1.05927 0.878156
        -0.283937 1.30604 -0.424656
        0.251026 1.18437 -0.836762
        0.839701 1.87102 -0.0887363
        0.15146 2.28036 0.835338
        1.24218 2.46054 -0.243681
        0.241984 1.60116 0.325743
        0.302126 1.14874 -0.447782
        0.739967 1.77707 -0.477649
        -0.271383 0.875574 0.10931
        -0.767874 1.06319 -0.400995
        -0.829611 1.81224 -0.191478
        -0.205221 1.36648 0.447242
        -1.72827 0.879136 -0.396022
        0.173236 0.60312 -0.780794
        0.212998 0.799449 -0.625417
        -0.357566 2.38607 0.176114
        0.0545605 1.44247 -1.39502
        0.820624 2.03576 1.38667
        -0.137863 1.23858 0.995815
        -0.270589 1.13953 -0.0321908
        -0.845718 0.305786 0.606764
        -0.335579 1.6203 1.06214
        -0.955207 1.09434 0.713064
        -0.0798509 -0.952067 0.12146
        0.474406 -0.648247 -0.633678
        0.563454 -1.06971 0.324103
        -1.14558 -0.819352 -0.273924
        1.60469 -0.69512 0.416129
        -0.0884353 -1.13804 1.56995
        0.372773 -1.05268 0.254562
        -0.619335 -0.383324 -0.184272
        0.135493 -0.0995047 1.20737
        -0.583725 -1.63758 -0.125271
        0.03998 0.17839 -0.806784
        0.681419 -2.78678 0.400086
        0.486218 0.0859645 -0.845308
        0.590598 -0.682841 -0.849465
        -0.619786 -2.07746 -1.05192
        -0.272648 -2.15634 -0.169075
        -0.43299 -1.00381 0.500742
        -0.637108 -2.04941 0.520994
        0.154661 -1.63108 -0.499853
        0.244642 -1.79706 0.0918006
        0.284679 -0.765283 0.189378
        0.575024 -2.01155 0.0964935
        -0.843585 -0.25286 -0.713301
        0.554252 -1.34906 -0.0124467
        -0.38433 -1.54673 -0.422017
        0.195246 -1.07009 0.159265
        -0.629086 -0.688421 0.708862
        -0.929019 -1.66215 -0.834903
        -0.949432 -1.1356 0.993115
        0.32026 -1.26122 1.07835
        0.0503297 -1.04888 0.65613
        0.203312 -0.0783409 -0.53899
        0.581447 -1.99605 0.563707
        1.39482 -2.11945 -0.714387
        -0.17575 -0.353572 0.920782
        -0.203144 -2.13168 -0.753478
        1.27524 -1.45265 0.168762
        0.354241 -0.48329 -0.398495
        1.65284 -0.52698 1.64898
        -0.860148 -1.57655 1.25904
        -0.609809 -1.68646 -0.15186
        -1.32508 -2.70497 0.63767
        0.79653 -1.62878 -0.0477249
        -0.41454 -0.102909 -1.0039
        -0.102462 -0.316443 -1.02081
        0.513657 -1.58206 -0.166621
        0.748494 -2.05265 0.15604
        0.531633 -2.16813 -1.15848
        -0.895016 -0.703262 -0.358764
        0.545309 -2.55994 0.712434
        -0.495712 -1.09572 0.014099
        -0.381714 -2.91814 0.252213
        -0.988072 -0.880983 0.613326
        -0.282669 0.354599 0.287452
        1.03094 -0.935226 0.695638
        -0.513577 -1.13105 0.489694
        -0.747955 -2.32787 -0.258226
        -0.31471 -1.65839 -0.480365
        1.36305 -1.54553 0.652692
        0.871907 -1.26167 -0.830192
        -0.0992018 -1.70109 -0.804839
        1.46742 -1.28707 -0.311675
        -0.155159 -0.485711 -0.614776
        -0.851672 -0.38059 0.911745
        -0.826536 -1.46087 -0.488131
        -0.219875 -2.31204 0.393283
        1.11034 -1.151 0.469673
        0.682367 -1.53204 0.14719
        0.76534 -0.321379 -1.0502
        0.0549996 -0.649006 0.122082
        -0.5935 -1.27626 -0.0780765
        0.283466 -2.46729 -0.44528
        -0.88465 -0.52856 -0.30664
        0.525667 -0.247657 0.254591
        -0.885281 -1.66143 -0.399754
        -0.484535 -2.18658 0.926047
        0.546218 -1.11756 -0.306667
        -0.0210501 -0.642718 0.0655009
        1.84624 -0.908246 0.409223
        0.0101383 -0.980373 0.558927
        0.280835 -1.20124 0.0866548
        0.617949 -1.28265 0.467262
        0.52818 -1.20903 0.309082
        -0.757572 -1.76811 0.790978
        0.316099 -0.789626 -0.0208709
        1.03192 -1.04569 0.556428
        -0.290074 -0.616708 -1.43453
        0.352093 -1.28222 0.0348057
        -0.160817 -0.50323 0.303974
        0.961698 -1.22627 -0.0943825
        0.392794 -0.210781 0.834034
        -0.395683 -0.296294 -0.291137
        -0.560722 -0.28295 -0.935489
        -0.558622 -1.18169 -1.00937
        0.746051 -3.27303 -0.572033
        -0.918024 -1.79152 0.410964
        0.669284 -2.92974 0.556659
        -0.0753758 -1.05004 -0.5277
        -0.73345 -1.76959 -0.940365
        0.852241 -0.675998 0.805671
        -0.0483485 -1.9664 -0.246528
        0.0531571 -1.1052 -0.729101
        0.0267253 -1.88401 0.284691
        -0.794829 -1.45537 -0.445243
        1.10897 -1.9007 -0.774527
        1.10952 -1.32558 -0.226997
        0.805716 -1.5611 -0.948731
        -0.296337 -2.83192 -1.0607
        0.501957 -0.817093 0.805727
        -0.236208 -0.406146 -0.291055
        0.19164 -0.793537 0.441462
        -1.12366 -2.26067 -0.29921
        0.441524 -2.10263 0.200968
        -0.437233 -1.1295 0.688102
        -0.232289 -0.856472 0.711459
        0.702115 -1.61606 -0.683244
        0.651615 -1.47733 1.9451
        0.326193 -1.6715 0.628711
        0.993849 -0.71849 -0.38097
        -0.28573 -1.65773 -0.862772
        0.57374 -1.22787 -0.598519
        -0.208657 -1.93996 0.216819
        0.0680235 -0.486866 -1.17002
        0.0427288 -2.183 -0.827201
        0.674614 -1.07739 0.0181278
        0.404538 -1.52341 0.19546
        0.328183 -0.828934 -0.897003
        0.826729 -1.66831 0.0184247
        0.855156 -1.36318 0.900107
        0.237012 -2.39827 -0.195667
        -0.567153 -1.56614 -0.237428
        -0.503754 -1.76869 0.00200496
        -0.226304 -0.759821 -1.12112
        0.398793 -0.501314 -0.784232
        0.873663 -2.16356 1.46263
        -0.337327 -2.33536 1.81887
        0.527874 -3.03782 -0.957462
        0.33922 -1.59211 1.46898
        1.59615 -1.25318 -0.595333
        1.53351 -1.40068 1.66433
        1.59142 -1.80239 -1.10808
        -0.227264 0.234086 -1.27809
        -1.39727 -0.393509 -0.156368
        0.367905 -1.44659 -0.984621
        0.218216 -1.38657 -0.126518
        -0.619148 -2.45262 -0.420673
        -1.48441 -0.866389 0.148051
        0.898374 -1.9769 -0.331911
        -1.03168 -1.68305 -0.835434
        -0.736886 -0.64382 -0.746145
        0.580275 -2.08089 -0.400835
        1.34911 -1.9342 0.801861
        0.122781 -0.685866 -0.0846088
        -0.237777 -1.63279 0.0607365
        0.342711 -1.1382 0.367981
        -0.312561 -0.152354 -1.10083
        1.07337 -0.99595 0.180162
        0.0787018 -0.583653 -0.3132
        0.0727091 -0.537868 -1.03809
        0.113429 -0.210833 -1.71997
        -0.785567 -1.0082 1.10031
        -0.774801 -1.45151 -0.749353
        0.851793 -1.74417 0.869512
        -0.454602 -0.871098 0.641157
        -0.704414 0.27831 -0.709948
        -0.756981 -0.138995 0.852364
        -0.0228818 -1.64824 -0.673971
        -0.928263 -1.55801 0.779323
        -0.545711 -1.4447 -0.293694
        -0.969286 -1.39041 -0.0683787
        -0.923038 -1.2168 0.0854021
        0.620402 -1.81742 -1.17974
        -1.60467 -0.193139 0.309952
        -1.66621 -0.485313 0.634964
        -1.02289 -1.26243 1.48285
        -0.248848 -0.241318 0.2093
        -0.654721 -0.686796 -1.5791
        0.21915 -1.19835 -0.568073
        -0.0671504 -1.49161 -1.53487
        -1.02483 -1.13303 0.0270278
        0.997669 -1.35246 0.77727
        1.56465 -1.83426 -0.215898
        -0.465925 -1.59795 0.96539
        -0.784677 -0.267925 0.551478
        0.454006 -0.371363 1.00391
        1.87559 0.275852 -0.571541
        -0.462211 0.79951 0.0278379
        -1.0984 0.128315 0.770748
        -0.436466 0.644416 -0.678845
        0.437052 1.60271 -0.0761741
        0.727235 0.425617 0.342961
        0.819134 -0.0564191 -0.386702
        0.0763674 1.59655 -0.746314
        -0.276096 1.00103 1.34209
        -0.25482 0.12897 -0.348466
        -0.817255 0.512476 0.339332
        0.187393 0.844618 0.31583
        1.59148 0.72264 1.4047
        -0.534227 0.0129039 -0.955789
        0.508418 0.239147 0.186308
        0.979396 0.0372607 0.829444
        0.0919552 1.38472 0.794246
        -1.84869 1.79688 0.845951
        0.0585243 1.27307 0.716308
        -0.644588 -0.28901 -0.637794
        0.961704 -0.0267683 -0.235392
        -0.535322 0.720642 -1.95257
        0.558332 1.44932 -0.401111
        -0.700451 -0.148672 0.852315
        1.20503 0.571298 0.520362
        0.588343 0.863768 -0.340767
        0.887702 1.21842 0.653335
        0.141523 2.43243 -0.186362
        -1.18551 0.499643 0.769029
        -0.70221 1.04776 -0.783832
        0.856419 0.786357 0.187879
        -0.176385 0.99199 0.796366
        0.188215 1.06762 -0.614505
        0.125683 1.45147 0.460455
        -0.598177 0.419145 1.22995
        -1.25964 1.29351 1.34393
        0.165686 0.992409 0.259487
        -0.912397 2.99609 1.1143
        0.595147 0.810418 0.289611
        0.706971 0.332598 -1.35261
        -0.131318 0.0943842 0.643834
        -0.634592 0.720496 0.557499
        -0.131551 0.380415 0.814564
        0.80915 2.27349 0.0967315
        -0.505289 1.59168 -1.37379
        0.64899 0.419257 0.321601
        0.298573 1.16015 0.198248
        0.013797 2.69122 -1.01445
        -0.844961 0.419694 -1.44691
        -0.590224 0.182595 -1.02357
        -0.236531 1.53547 -1.36469
        0.815201 1.30676 0.731975
        -0.309694 1.18916 0.486613
        0.363634 1.82212 1.35952
        1.27832 1.47946 0.168831
        0.289879 1.35772 0.70569
        0.925514 2.14857 0.999911
        -0.663004 1.01754 1.35714
        -0.35896 0.0284155 0.983778
        0.445655 1.5413 -0.513208
        0.350961 0.570698 -0.0698541
        -0.196209 2.28871 0.11118
        0.0479864 2.65445 -0.0118886
        0.347818 2.52231 0.587215
        0.778547 0.54638 1.4592
        -0.942825 1.63701 -1.32385
        1.43051 1.23281 -0.39
        -0.201515 1.83738 -0.763385
        -0.920032 0.256618 0.951508
        -0.557397 0.356643 0.269383
        -0.848903 1.63072 1.2047
        0.441758 1.61089 0.408411
        0.633227 1.04617 -0.712949
        0.306771 1.40849 0.153558
        -0.893397 1.81842 -0.245619
        -0.387835 1.08949 0.397952
        0.219942 0.934241 -0.546004
        -0.126905 0.936783 -0.0635133
        -0.484804 0.997255 -0.753467
        -1.66381 1.25088 -0.187242
        0.928366 1.36671 -1.40159
        0.297444 0.866213 -0.251313
        -0.447927 0.74009 0.322478
        -1.14496 1.83744 -0.886607
        -0.0332224 1.19622 -0.346955
        0.927424 1.10096 -0.591558
        -0.373097 1.25154 0.429934
        -0.131546 1.49436 -1.23849
        -0.340265 1.10303 0.891213
        -0.752919 1.4862 0.012658
        -0.00044171 1.63159 -0.177497
        -1.65766 0.734286 -0.650717
        -0.0597818 0.932701 0.256646
        0.0226695 2.01575 -0.239305
        0.403757 0.774052 -0.292976
        0.159878 1.49712 0.435524
        0.596545 0.783364 0.147116
        -1.04747 1.49681 -0.418166
        0.374659 0.360562 -0.0281312
        -1.08926 1.43322 -0.0307311
        -0.781733 2.38427 -0.24354
        0.905715 2.15401 0.816812
        0.736236 0.697149 0.0685927
        0.533436 0.545032 -0.312631
        -1.3379 0.687704 0.217943
        1.07841 0.612211 0.381583
        0.428961 1.06271 -0.619846
        -0.0781384 0.838241 -1.44799
        -1.11447 1.46667 0.504694
        -0.364071 0.964234 -0.360637
        0.0879052 0.398051 0.213871
        -0.345838 1.4243 -0.650277
        -0.0412013 1.39493 0.648894
        0.358217 0.00875197 1.13553
        0.582301 0.803399 -0.235168
        -0.745888 1.09233 -0.26001
        0.230459 1.31088 0.247628
        -0.0237557 -0.780164 0.0190233
        0.00625567 2.344 -0.433205
        1.17738 0.719269 0.0600127
        0.628222 1.3245 -1.34432
        -0.549762 2.17167 0.267036
        0.685751 1.67433 -0.699847
        0.839936 2.20003 1.2307
        -0.239491 2.03175 0.0856623
        -1.16258 0.405505 0.625271
        -0.282344 1.88231 -1.33969
        0.889784 2.24395 0.78899
        -0.453387 1.42742 -1.28079
        -0.999483 0.840611 -1.29845
        0.602615 2.26652 0.250537
        -0.0531247 0.529388 0.505193
        -1.04774 0.382716 -0.449006
        1.59887 0.862891 -1.16566
        -0.0930951 0.72521 0.120979
        0.591801 1.86554 0.475884
        -0.716275 1.3769 1.03487
        -0.406575 0.437406 0.852097
        -0.210155 0.260298 0.998106
        -0.0851283 2.04637 -1.1222
        -0.499269 2.34002 0.865442
        0.591614 0.488599 0.866214
        -0.67552 0.477704 0.985854
        -1.22249 1.58081 0.275851
        -0.888467 0.550842 -1.45895
        -0.235209 0.593181 0.521788
        0.305226 0.229458 -0.320673
        0.407143 2.79938 0.711279
        -1.93009 1.53306 0.404628
        0.296782 0.959561 0.084856
        -0.358681 2.01208 0.747469
        -0.0452204 1.60923 -0.125079
        -1.14907 1.11856 -0.956216
        -0.796602 2.80575 -0.359033
        0.257475 2.55498 0.601872
        0.366822 1.90632 0.0541414
        0.390608 2.39322 -0.472149
        -0.567133 1.02733 0.928079
        0.533225 0.276996 0.105793
        0.0879839 0.454271 0.13032
        -0.431841 1.90454 -0.286246
        -1.20524 1.6057 0.580166
        0.517514 1.107 0.694314
        -0.960437 1.88598 -0.694975
        -0.983359 0.640958 -0.430264
        -1.43986 0.401633 0.548802
        0.432559 1.61098 0.286815
        0.288032 2.04006 -0.666411
        0.209752 0.959691 0.956858
        -1.32752 1.21102 -0.612155
        -1.15907 1.76787 -0.390981
        0.902133 1.29605 0.104004
        0.212718 0.451144 0.456848
        1.21651 -0.943785 -0.905982
        -0.791123 -2.18774 1.27427
        -1.06735 -0.784831 0.635538
        0.408676 -1.67175 0.289079
        0.944811 -1.74508 0.597596
        -0.195882 -1.05431 -0.493375
        -0.316475 -2.03684 -0.811648
        -0.369438 -1.04898 0.031472
        0.914739 -1.21556 0.270999
        -0.474849 -0.0761248 1.05842
        -0.966921 -3.70487 0.0481116
        -1.26686 -2.24912 -0.651625
        0.394409 -1.97772 1.96578
        0.839855 -1.32374 0.786476
        0.141029 0.33604 -2.22901
        0.790951 -2.73778 1.31185
        0.617329 -1.41214 -0.317227
        -0.0172811 -1.3534 0.431627
        -0.134763 -2.14617 1.02926
        0.558857 -1.89195 -0.704628
        -0.357755 -4.03143 0.0994983
        -0.402848 -0.876067 -1.18235
        -0.715702 0.138084 0.801898
        0.0298035 -1.14265 -0.698553
        0.714886 -2.24869 0.163267
        -1.24222 -1.429 -0.0645143
        -0.319545 -0.925821 -0.348264
        -0.615302 -2.0667 0.558545
        -0.733246 -1.68351 -1.42272
        -0.100352 -1.75651 -1.63053
        0.0966223 -1.20104 0.194844
        -0.574487 -1.34749 -0.681585
        0.789933 -1.41203 0.044312
        0.196 -1.50142 0.110203
        0.550871 -0.975651 -1.15397
        -0.711341 -2.37507 -1.03044
        -1.21744 -1.79066 1.41383
        -0.690465 -2.41886 -1.05809
        1.10103 -1.23488 -0.369502
        -0.596525 -1.1595 -1.60455
        0.550607 -1.67087 -0.430736
        0.631299 -0.638996 -0.203063
        0.170497 -2.2239 -0.0167551
        -0.346025 -0.200397 -0.25309
        -0.953393 -0.341094 0.348357
        -0.301864 -1.99445 -0.315565
        0.291094 -2.56346 0.263927
        0.162121 -1.869 -0.54443
        1.16549 -3.42424 1.50696
        0.619515 -0.996404 1.07118
        0.697537 -1.80813 -0.205303
        -1.40409 -0.960904 0.554388
        -0.300612 -2.47373 0.72635
        0.954533 -3.06952 -0.227062
        -2.03238 -0.377831 1.21281
        -1.50906 -1.99747 1.3411
        0.527939 -1.01423 -1.17168
        -0.111252 -0.534426 -0.0915167
        -0.316567 -2.18537 -0.580245
        1.21701 -0.895314 -0.512949
        0.33535 -1.24395 0.289349
        -0.68009 -3.00437 -0.917567
        -0.546298 -1.3865 1.42749
        -1.2663 -2.07858 0.478393
        0.634244 -0.707274 1.21565
        1.63731 -1.76756 0.895029
        1.00007 -0.254556 0.314723
        0.0912888 -2.51123 0.63011
        0.349234 0.327336 0.782475
        0.542552 -1.3522 -0.381372
        -0.354643 -1.06879 -1.24769
        -0.709551 -1.7494 -0.540994
        -1.97666 -0.804332 0.613691
        0.922087 -0.642952 0.462401
        -0.359756 -1.16099 0.206738
        0.697272 -1.89351 -0.580918
        0.494758 -2.41897 -0.0766666
        1.58679 -1.54995 -0.445843
        0.149354 -1.44817 0.31775
        -1.01806 -1.621 -0.904157
        0.527855 -1.51318 1.17201
        -0.887766 -1.72842 -1.14645
        -0.498715 -1.63656 0.537576
        -1.34781 -1.58586 0.699731
        -0.169478 -1.23714 -0.552522
        -0.282809 -0.258942 -0.897553
        -1.44325 0.966076 -0.673846
        0.151558 -2.25142 0.0691726
        -0.946797 -0.499677 0.237125
        0.30963 -3.6641 -0.833731
        0.13799 -1.15534 0.678971
        -1.06335 -2.15389 -1.71867
        -0.356759 -1.83134 0.721119