<?xml version="1.0" encoding="UTF-8" standalone="no" ?>
<VTKFile byte_order="LittleEndian" type="UnstructuredGrid" version="0.1">
  <UnstructuredGrid>
    <Piece NumberOfCells="0" NumberOfPoints="1764">
      <PointData>
        <DataArray Name="velocities" NumberOfComponents="3" format="ascii" type="Float32">
        -1.00495 -0.673333 0.820416
        -1.88735 -1.72866 0.416396
        -0.112454 -1.41998 0.306729
        -0.511 -0.529541 -0.63933
        -0.492581 -1.39563 0.537654
        -0.104806 -1.26689 0.569559
        -0.272045 -0.683365 -1.06019
        1.11255 -0.583661 -0.367361
        -0.130712 -0.760189 -0.410804
        -0.644902 -1.01503 -0.157299
        -0.749718 -1.57909 -0.186983
        -0.06048 -1.35362 1.32066
        -0.185241 -1.88288 -0.571077
        0.876368 -1.15933 0.435564
        -0.139706 -1.15849 -0.508091
        0.162534 -1.02419 -0.304245
        0.623559 -1.61645 0.697904
        0.389164 -1.25644 -0.282763
        -1.46164 -1.22302 0.0611768
        -0.996273 -1.86989 -0.587185
        -0.0394294 -1.41407 -0.824471
        -0.844568 -1.59599 1.35657
        0.115244 -0.928482 -1.02013
        -0.0934167 -1.25682 0.0335127
        0.486737 -2.26888 1.3592
        1.49187 -2.05141 -0.244625
        0.853875 -1.19326 -1.1412
        0.828108 -1.786 -0.285056
        1.33677 -1.76615 0.285477
        0.54083 -1.78311 0.214271
        0.874071 -0.493941 0.195606
        -0.735336 -1.70852 -0.203261
        0.604556 -1.1974 -0.407014
        0.000187651 -1.63206 0.864582
        0.135506 -1.10492 0.587045
        -0.130869 -2.14517 0.460273
        -0.59146 -1.0182 -0.14888
        -0.0693833 -1.43917 -1.11357
        -0.0100094 -0.572157 0.254669
        0.11086 -1.57223 0.267463
        -0.96285 -2.02994 0.0679987
        0.751352 -1.31171 0.335654
        -0.388663 -1.22683 0.0556195
        -0.121766 -0.794265 -0.545639
        -0.688513 -1.12446 1.30643
        0.0333597 -2.64271 -0.433379
        -0.0949753 -1.08615 -0.819887
        -0.381197 -1.60387 0.0280123
        -0.10223 -1.50483 0.269849
        0.0269411 -1.52015 -1.14156
        0.187272 -0.848434 0.567538
        0.219113 -1.65862 1.33732
        0.876047 -1.38502 -0.59435
        0.0987138 -1.82706 -0.902419
        -0.790091 -0.957019 0.211079
        0.604618 -0.755859 -0.661835
        0.634547 -2.43377 0.00777978
        0.25092 -0.182486 0.473797
        -0.95662 -0.670263 -0.48273
        -0.0805819 -0.506363 -0.136263
        -0.263698 -2.38713 -0.832915
        0.510246 -1.4069 -0.352193
        0.0678217 -2.276 0.213358
        -0.432751 -0.827308 0.201048
        -0.503202 -0.419919 -0.900501
        -0.603892 -1.46058 0.124409
        0.99594 -2.15011 0.886203
        -0.138442 -1.67548 0.791332
        -0.756005 -2.15902 -1.09761
        -0.737945 -1.21987 -0.0398492
        -0.663811 -1.13241 0.131658
        -1.36904 -2.08739 0.317914
        0.553993 -2.92086 -0.847555
        1.67395 -1.40029 -0.50356
        -0.48637 -1.06068 0.0143
        -0.148927 -1.51141 0.366313
        -1.04672 -1.9147 0.564749
        -0.0431961 -1.27354 -0.791221
        0.156807 -1.63028 -0.242271
        0.069794 -0.787609 0.318872
        -0.105528 -1.90207 -0.22561
        -0.470281 -1.48932 -0.546424
        0.5548 -1.42513 -0.49139
        -0.581603 -2.23982 -0.351525
        -1.25255 -0.731466 -0.835397
        0.215208 -1.90227 0.0646439
        -0.397457 -1.07415 -0.26429
        -0.445677 -1.26709 -0.445896
        0.591235 -2.07548 -0.73599
        -1.61174 -2.97341 0.120281
        -0.374547 -0.829154 -0.0328464
        0.332182 -2.48063 0.403914
        -0.83739 -2.05695 -0.880757
        0.224655 -0.988394 -0.157061
        0.333358 -1.5875 0.668588
        0.0980263 -1.52198 0.133545
        0.691539 -0.208969 0.286135
        0.71322 0.0679112 -0.205455
        0.86768 -2.36075 -0.316316
        0.125936 -0.24544 0.683208
        0.406641 -1.1284 0.68469
        -0.755292 -1.43577 0.348985
        0.872578 -2.13198 0.488557
        -0.145074 -0.905421 1.18004
        -0.0787416 -1.50712 -1.16247
        0.621369 -0.392697 0.571819
        -0.594217 -1.50683 -1.15051
        1.44385 -1.28109 0.480612
        0.963185 -1.50696 0.170479
        -0.843568 -1.85372 0.613607
        -0.383968 -1.28758 -0.247834
        -1.21773 -1.86113 -0.836902
        0.0965614 -1.40743 -0.191346
        -0.630201 -0.862785 0.669624
        1.23938 -1.65422 -1.14526
        0.253875 -2.04542 0.353468
        0.591689 -3.37306 -0.536352
        -0.106316 -2.73256 -0.0744144
        0.153725 -0.101292 -0.0939091
        -0.847225 -0.935643 -0.709377
        0.412637 -2.59304 0.142747
        0.145415 -1.31767 0.671113
        -0.521135 -2.31038 0.26822
        -1.14398 -0.522083 0.533476
        -0.462953 -1.4047 0.179449
        0.654497 -0.57789 -0.27876
        -0.117477 -1.52104 -1.48158
        -0.718459 -0.660354 0.35594
        -1.3585 -0.96746 -0.399771
        -0.329058 -1.17688 0.126886
        -0.0340197 0.55999 0.643818
        -0.386182 -1.45441 0.184652
        -0.860008 -2.88165 -0.37182
        0.0274063 -2.20108 -0.713394
        1.22015 -1.12081 0.115114
        -1.37857 -0.912843 0.259788
        1.34337 -1.53761 -1.86705
        -0.372148 -2.81611 -0.0589213
        0.592814 -2.74568 -0.356066
        0.0952555 -0.855453 -0.355031
        0.305637 -1.90405 1.2216
        -0.24414 -1.54303 0.191116
        0.282706 -2.36999 -0.9282
        0.859426 -2.531 0.0782741
        -0.0526136 -2.36034 1.03106
        -0.00151172 -1.65494 0.823204
        0.540784 -1.58553 0.0221255
        0.49949 -2.88317 0.0769505
        0.073716 -0.782147 0.0595732
        1.3257 -1.03066 -0.403923
        0.923253 -0.72335 -0.0619834
        0.386957 -1.92187 0.367456
        1.55401 -0.998974 0.150073
        0.0125555 -0.902094 0.534619
        -1.05024 -3.19439 1.01283
        1.14606 0.016937 -0.0534615
        0.915244 -0.97121 -0.397398
        -0.622071 -1.14491 0.494311
        -0.645376 -1.85728 0.69333
        0.527441 -0.963748 -0.0483211
        0.560907 0.505125 -0.544358
        -0.0115387 -1.5837 0.118365
        -0.442492 -1.36619 0.002932
        0.744122 -1.02635 1.65878
        -0.0801277 0.245515 0.886445
        -0.55506 0.247144 0.378869
        -1.02753 0.143375 0.869206
        0.297856 -0.325975 -0.245985
        0.634526 -0.538252 -0.636579
        0.610658 0.602663 0.76709
        -0.788864 -0.183888 -0.589206
        -0.0694411 -0.75041 -0.16279
        -0.647282 -0.577942 0.98596
        -1.14941 0.138362 0.592427
        -1.95617 -0.87805 -0.173838
        -0.334556 -0.215663 -1.17387
        -0.633702 -0.126402 -0.577566
        0.00739785 -0.993648 1.28428
        -0.00886339 -1.94259 0.662743
        0.0587066 -1.19364 0.105808
        -0.457207 0.544239 -0.144132
        -0.545203 -0.17206 -0.315905
        -0.127792 0.244199 2.15036
        -0.499827 0.602834 0.621753
        0.676396 -1.72406 2.13421
        1.0725 -0.105412 -1.08218
        -1.29717 -1.7422 -1.214
        -0.100336 -0.398245 1.02723
        -2.414 -1.12227 0.999192
        0.293728 0.573642 -0.487803
        -1.06339 0.464939 0.0482159
        -0.214067 0.566022 -0.344642
        -1.08611 -0.188396 1.19233
        0.14575 -0.526452 1.29108
        1.52753 -0.903839 1.11671
        0.557591 -0.675178 -0.874163
        -0.443637 -0.09271 0.764044
        1.55042 0.00856212 0.0163474
        -0.952754 0.381517 0.382611
        -1.22955 2.44102 0.124313
        0.606767 -0.937444 -0.1131
        -0.342163 0.186631 0.737593
        -1.32902 -0.0110122 1.79022
        -0.147643 0.892147 0.108903
        0.355229 0.208877 -0.00303174
        -0.22621 0.617567 0.228861
        0.397854 -0.467849 0.673614
        -0.48769 0.982199 0.535043
        0.0183658 1.31403 -0.90015
        0.0482627 0.940912 0.791913
        0.0348677 -1.05339 -0.716155
        -1.57604 -0.145369 -0.453429
        -0.744825 -0.701286 0.622673
        -0.903476 0.868474 -0.39469
        -0.475971 0.493479 -0.239675
        0.0898154 0.548974 0.378356
        0.106479 -0.197463 -0.503349
        -0.173506 1.35068 -0.356858
        0.0233189 -0.432959 -0.00859586
        -0.126908 0.575428 0.863918
        -0.0565566 -0.719148 -1.21224
        -0.251348 2.23324 -0.951694
        1.2572 -0.000610993 0.351331
        0.479599 0.00568746 1.13561
        -0.695786 1.6403 -0.514729
        0.529214 1.06566 0.299139
        0.566551 1.11266 0.945667
        -0.700091 -0.692264 -2.3021
        -0.617473 0.727021 0.310289
        -1.53696 1.21821 0.990214
        -1.64186 0.425102 1.29054
        -0.067869 1.23324 -0.229085
        -0.144256 1.05255 -0.290222
        0.219948 0.438577 0.717182
        1.28286 0.947658 -0.280623
        0.51557 0.17923 -0.417745
        -0.470967 0.221027 -0.0396399
        -1.68657 1.86379 1.84747
        0.139754 0.95884 -2.6213
        -0.47941 1.88169 -0.327166
        -0.145654 0.993141 0.186174
        0.0839762 0.588565 0.639852
        -1.98275 1.54091 0.0580232
        0.657381 2.34466 -0.253519
        -0.21407 1.19038 -0.217605
        -1.05358 0.946166 0.981956
        -1.01104 1.24467 0.187831
        0.202168 1.1522 -0.859666
        -0.66077 1.11757 1.88675
        -0.743707 1.27003 -0.582617
        -0.288593 1.22712 -2.10108
        -0.0943128 1.29686 0.514044
        0.706226 0.704796 -1.04572
        0.121255 0.567952 0.157747
        -0.762661 1.07698 -0.282676
        0.0701533 0.735685 -0.660997
        1.6742 -0.451592 0.443214
        0.489223 1.07223 0.767135
        0.957279 0.351556 0.203467
        1.62652 0.609797 0.809259
        0.0813189 1.18966 -0.774503
        -0.118083 1.56386 0.348571
        1.4952 1.42513 -0.450865
        0.816112 1.7819 1.13363
        0.506959 1.46363 -1.23263
        1.44185 2.55135 0.636955
        -1.11827 2.74315 -0.333811
        -1.16018 0.50367 0.159208
        0.62892 0.918438 -1.25065
        -1.44642 0.184922 -0.677783
        -1.02141 2.04662 -0.700169
        0.333197 1.38436 -1.15276
        0.709635 -0.0521924 -1.16108
        -0.559695 1.52673 1.55849
        -1.23208 2.57609 -1.09221
        0.156425 1.04365 -0.855206
        1.04464 0.855783 -0.225839
        -1.3368 1.70535 0.423137
        0.753004 1.28944 -0.882459
        0.442869 2.06825 -0.620263
        -0.742685 1.05744 0.562175
        0.216095 1.25568 -0.178172
        -1.36084 1.1751 -0.060004
        0.398875 0.619831 -0.11985
        -0.57924 1.91937 0.62295
        0.0135476 2.05317 -0.371337
        0.483499 1.23165 -0.231696
        0.168665 2.65102 -0.198154
        -0.890829 1.56059 -0.0160037
        -0.86978 1.13738 0.12088
        0.0244463 1.40705 0.441509
        0.16678 1.38664 -0.0136159
        0.296805 1.61107 -0.314693
        -0.0823401 1.38142 0.681931
        -0.159309 1.18997 0.415789
        -0.414009 1.92313 0.180834
        1.08686 2.01094 -0.833028
        -0.231733 1.50401 0.451558
        0.348614 1.66186 0.804021
        0.989918 2.11688 0.585035
        -0.565492 1.714 -0.469539
        1.47051 0.520309 -0.143554
        -0.332347 2.31378 -0.119887
        0.490946 1.55396 -1.19977
        -0.489805 0.416642 -0.0910427
        -0.619593 1.84293 -0.0319381
        -1.22797 1.11272 0.496034
        0.530491 0.306713 0.258373
        0.191001 0.611854 0.18876
        0.441667 2.05449 -0.774966
        0.231417 1.51923 0.887016
        -0.765318 1.35552 -0.845745
        -0.167704 1.93239 -0.0187084
        -0.312765 2.25318 -0.245245
        -0.223272 1.85233 0.958875
        0.455412 2.01238 -0.322381
        -0.0459652 1.1988 0.442597
        0.0228403 1.35892 -0.851575
        -1.15394 0.46651 0.503352
        -1.16022 1.10418 1.60149
        -0.669822 0.757299 0.469338
        0.566167 0.587091 0.241936
        0.0987733 2.07196 0.243828
        0.332229 3.4126 -0.701591
        0.214706 2.12517 0.41641
        -0.417734 2.23959 1.54929
        0.919093 2.02073 -1.05663
        -0.822134 1.89885 0.379724
        1.01171 1.54673 -0.677587
        0.706887 1.97148 -1.0474
        0.608024 1.48204 -0.197253
        0.833591 1.73065 -0.241913
        -0.20094 1.46877 0.471582
        0.172735 1.80352 -0.538436
        0.376457 0.920662 -0.300218
        0.372792 1.58768 -0.462426
        1.40028 1.05793 0.409269
        -0.97484 1.43147 -0.805808
        0.90621 1.63593 -0.484243
        0.948833 2.12465 0.467428
        -0.303739 1.02402 -0.37162
        -0.801665 1.55352 -0.012991
        -0.913604 0.606831 1.01546
        0.779392 1.58039 -0.824715
        -0.881357 0.35001 0.221179
        0.757107 2.15572 -0.462662
        -0.981988 2.19837 -1.08877
        0.961626 0.827677 -1.44883
        -0.439826 2.03694 -1.29298
        -0.672033 1.90934 0.277795
        0.694456 0.612323 -0.0278114
        -1.00732 2.46618 0.647315
        0.312449 0.65018 1.0177
        1.21915 2.01995 -0.322403
        -0.853835 1.87189 -0.447138
        0.819516 1.93754 -0.721632
        -0.0932098 1.45748 0.730442
        -0.64022 1.7771 -0.516507
        -0.29493 0.908861 -0.051761
        0.514325 2.05097 -0.91695
        0.525012 0.954532 -0.324786
        0.104818 1.3922 0.385918
        -1.11966 1.93732 -0.676636
        0.0322541 2.57303 -0.0303731
        -1.23489 1.31733 -0.89567
        -0.661323 1.86111 -0.198281
        -0.938342 1.78802 -0.775197
        -0.0726307 0.810281 -0.463024
        0.188324 1.49868 -0.322998
        -0.402663 2.83503 0.0932284
        -0.216887 1.53185 0.463348
        0.265553 0.89047 0.381884
        -0.809375 2.23309 -0.218166
        -1.22098 3.16411 0.321377
        0.415934 3.14902 -0.615304
        -0.234278 3.4006 0.478182
        -0.933739 3.11302 -1.15966
        -0.184279 2.05121 -1.91493
        -0.751474 0.658583 0.427154
        0.512775 1.70728 0.289169
        -0.318411 1.96831 1.17601
        0.578985 1.22928 -0.0992499
        -0.18214 2.05766 -0.767694
        -0.11499 1.52812 -1.20679
        0.230956 1.69529 -0.397635
        -0.955587 2.11132 0.241556
        1.0915 1.82289 -0.273256
        -0.476601 1.13437 -1.01423
        0.553913 1.26708 1.00774
        0.089886 2.19676 -0.276577
        0.246917 -2.52555 -0.640555
        0.529435 -1.56465 -0.545487
        -0.974474 -0.863522 0.240468
        0.42964 -0.989727 -0.0616507
        -0.492638 -0.970848 -0.113756
        1.10389 -2.71198 -0.745848
        -0.154964 -2.64558 -0.747583
        -0.717033 -2.29535 -0.23015
        -0.112375 -1.34241 0.191535
        0.184331 -0.638132 0.285329
        0.442629 -2.07492 -1.10674
        0.00337135 -2.22898 0.790293
        0.629575 -1.04364 0.344347
        0.213921 -1.43258 -0.639277
        -0.919788 -1.09202 -0.442897
        0.794132 -1.15246 0.0363645
        0.0324081 -2.10505 0.337143
        0.47243 -1.8999 -0.425877
        0.0654451 -1.78554 -0.90876
        0.647121 -1.19056 0.0414129
        0.547518 -2.4678 -0.859019
        -0.23867 -1.50301 0.830894
        0.633208 -0.652354 0.301022
        0.124975 -1.75304 -1.10219
        -0.486213 -2.00233 -0.345263
        -0.65204 -1.65826 -0.667369
        -1.21122 -1.32305 1.01044
        -0.594427 -0.898098 -0.0533004
        -0.847414 -1.5275 -0.124282
        0.0824338 -1.92917 -0.0649798
        0.561637 -1.56206 -0.277208
        0.798855 -1.69801 -0.357046
        -0.763515 -0.727974 -0.667433
        0.799896 -2.61135 0.0676827
        0.4398 -1.58697 1.10865
        -1.62493 -0.740273 -1.823
        0.613445 -1.53023 -0.718248
        0.324037 -1.04657 -0.223346
        -0.12447 -0.968511 -0.660134
        0.0160572 -1.59235 -0.249105
        0.145275 -0.975377 -0.530545
        -0.506659 -0.836159 -0.562843
        0.349234 -1.38682 0.151087
        -0.418004 -1.52599 1.02894
        0.271541 -0.993024 0.549664
        0.0879471 -1.34737 -0.841333
        -0.243078 -2.12889 -1.24156
        -0.294486 -1.24496 -0.783958
        -0.692794 -1.81447 -1.15754
        0.18205 -1.96243 -0.326466
        0.646674 -1.09738 0.504275
        -0.0817568 -1.0308 0.304924
        0.240055 -1.21407 0.895685
        0.0157027 -1.65932 0.610901
        1.49187 -1.3131 -0.909929
        0.0252866 -0.270001 -0.282133
        0.22038 -0.428086 -0.50523
        -0.482997 -0.547349 0.516005
        -0.38718 -1.71744 -0.113771
        0.20379 -1.59809 -0.0314423
        0.348482 -0.608534 0.119299
        -0.377713 -2.70322 -0.151386
        -0.544087 -2.41618 -2.19058
        0.838595 -1.88589 -0.859318
        0.766592 -1.75255 -0.839008
        -0.16043 -2.18813 0.366466
        0.537393 -0.900701 0.199237
        0.35831 -1.9644 -0.929648
        -0.279645 -1.12513 0.0592735
        -0.179705 -1.02449 0.129662
        0.278465 -1.54967 -0.30682
        0.705522 -3.66916 0.395352
        -0.248907 -1.83017 -0.395592
        0.813478 -1.46611 -0.769947
        -0.630066 -1.68356 -0.408705
        -0.589631 -0.714219 -1.74994
        0.659367 -1.03484 0.144048
        1.08821 -1.87346 -1.04103
        -0.429614 -2.30574 -0.0869238
        -0.622145 -0.716162 0.199218
        0.363043 -1.20038 -1.39596
        0.359771 -2.43264 0.4683
        -0.743142 -0.49647 -0.0963883
        -0.337737 -1.22939 -1.24892
        0.577086 -2.54897 -0.91419
        -0.0142614 -0.619711 -1.81823
        -0.0852195 -1.45568 1.28295
        0.62945 -0.881727 0.542543
        -0.79079 -0.581462 -0.673534
        0.156327 -1.89829 0.713571
        1.16708 -1.22079 0.975683
        -0.2021 -1.16687 -0.338072
        0.91639 -1.96161 -0.763386
        0.657772 -0.787749 1.17509
        0.797075 -1.23562 0.0432022
        0.057603 -1.03628 -0.109502
        -0.622168 0.122565 -0.86128
        -0.568132 0.379222 0.109948
        -0.31734 -1.17301 -0.470216
        -0.629318 -0.837372 -0.346723
        0.212883 -0.595685 -0.881475
        -0.237926 -1.09602 -0.779474
        -0.888908 -1.2131 0.0376163
        0.258578 -1.5837 -0.572057
        -1.29981 -1.19208 0.737639
        -0.879697 -0.0753002 -0.284252
        -0.383265 -0.0220677 -1.08817
        -0.580615 -1.42364 -0.202442
        0.646734 -1.44974 0.277939
        0.334099 -1.15262 -0.953243
        0.196914 0.0363804 -1.47719
        -0.246585 -0.505502 -0.688839
        -0.307448 -1.48593 -0.441247
        0.205105 -0.366612 0.947177
        0.628703 -1.24544 0.0743223
        -0.439245 -0.689913 0.256256
        0.844936 -1.24051 -0.353458
        -0.978098 -0.957836 1.13813
        -1.09908 -2.69562 -1.11365
        0.260685 -0.613705 0.0426377
        1.13265 -1.81989 0.133456
        0.84672 -2.0603 1.15921
        1.50085 -0.226443 -0.17033
        0.483079 -1.57421 -1.07316
        -0.112525 -3.62975 -0.164987
        -0.201879 -2.75341 -0.732953
        -1.27457 -0.978402 0.765685
        0.473396 -1.5472 -0.0814997
        0.359275 -1.23745 -0.988398
        2.05084 -2.67692 0.690884
        2.25909 -1.38213 -1.32112
        0.0283496 0.256645 0.205732
        0.04973 -0.437578 0.209873
        0.29804 -1.1723 -0.931098
        0.572483 -0.500802 1.76925
        0.327816 -2.09837 -0.160284
        1.11901 -1.0609 -0.0769588
        0.523592 -0.981054 -0.883645
        0.475922 -1.35036 1.4017
        0.682747 -1.23467 -1.05236
        -0.215656 -0.280699 -0.232192
        -0.844778 -1.10676 0.0203246
        -1.61233 -0.465259 1.0355
        -0.262341 -1.05545 -0.367782
        -0.345811 -2.12586 0.255263
        -0.19068 0.0792583 0.198778
        -0.227402 -1.46881 -0.237467
        0.816113 -1.57562 -0.32065
        -0.133348 -1.58536 -1.69879
        0.556869 -0.572585 -0.314758
        0.863732 -0.633582 -0.49937
        -0.0970307 -0.806506 0.158317
        -0.119099 -0.793717 -0.268941
        -1.73444 -1.47866 -0.986737
        -0.200239 -0.919975 -0.457224
        -0.287127 -0.341029 0.867692
        0.00358562 -0.890493 -0.525451
        -1.31802 -0.326851 -1.28568
        -0.525994 -0.580516 0.452508
        0.45545 -1.26901 -0.57919
        -2.03392 -0.845749 -1.51616
        -0.393819 0.696307 -1.12965
        0.96064 -0.368092 0.0278415
        0.842342 0.019338 -1.05188
        0.41931 -0.899608 -1.18268
        1.31431 -2.31101 0.109701
        0.945876 -0.610507 -0.169774
        0.194875 0.601153 1.31553
        0.0973092 -1.00538 0.301796
        0.355793 -1.65073 -0.248914
        1.07721 -1.06689 -0.181974
        0.60441 -1.52915 -0.505652
        -0.493658 -1.19566 -1.24448
        0.284228 -1.03766 -0.432612
        0.514097 0.333942 0.13029
        -0.174376 -0.385318 0.145744
        0.730035 -0.891035 -1.08248
        0.313682 -0.648605 0.553354
        1.03205 -0.52825 -0.598949
        -0.185165 -2.05838 1.32915
        0.491685 0.391433 -0.739875
        0.382378 -1.44902 -0.668249
        0.427856 -0.804692 0.688466
        -0.294117 -2.08056 0.468315
        -1.09307 -1.82565 -0.324232
        1.01807 -0.317623 0.225329
        0.24005 -0.708902 1.48435
        0.744326 -0.0911831 0.212661
        1.07815 -0.52437 0.216229
        -0.49813 1.84448 -0.513141
        0.798302 -0.757533 -0.386029
        -0.708892 0.47906 -0.536839
        -0.112009 0.652084 0.0124401
        0.96832 0.566601 0.296209
        0.547411 -1.23422 -0.153196
        1.18049 0.0129928 -0.0834934
        -0.0202075 -0.0592632 -0.635591
        -0.562176 0.072011 -0.879033
        0.509271 1.79159 0.587559
        -1.36166 1.17985 0.890823
        0.289105 1.12249 1.30799
        0.538782 -0.460563 0.298128
        0.795021 0.0296226 0.373066
        -0.133754 1.12883 -0.384633
        -0.276004 1.02713 0.358355
        0.536885 2.71371 -1.6391
        0.130038 -0.214594 -0.103416
        0.752953 0.761846 -1.35187
        0.231436 0.148788 0.565867
        0.573991 1.21761 0.255044
        -0.179408 -0.324447 0.834071
        -0.52759 3.5401 0.228951
        0.975526 0.725581 -0.33319
        -1.19479 0.382347 0.903394
        -0.323798 -0.0193089 -0.117527
        0.496725 0.923134 0.810685
        -0.159535 1.19324 -1.27503
        -1.68771 0.852675 1.81398
        0.893221 0.973714 0.122315
        0.80353 1.22856 -0.243259
        -0.0862879 1.65404 -0.394022
        -0.0403944 0.952669 0.0593761
        -0.406814 1.20621 0.380781
        -1.53231 2.1225 0.492568
        0.647396 0.157825 -0.240514
        1.0054 2.30333 -0.879752
        -0.766194 1.29812 -0.350953
        0.201762 0.849697 0.0619611
        -2.03434 0.561994 0.610274
        1.31026 0.904299 0.0211096
        0.258707 0.851099 -0.0303853
        -0.348555 1.24898 -1.14843
        0.749525 2.05015 -0.497941
        -0.452399 1.10994 -0.0731257
        -0.50135 1.8207 -0.676746
        -0.832614 0.733102 -1.41952
        -0.912007 1.4755 0.0535959
        0.247103 1.69023 -0.766054
        -0.344677 2.31825 -0.640382
        0.433252 1.6172 0.311685
        -0.614988 0.651576 0.131255
        0.156074 1.42632 0.32945
        0.940044 1.05678 -0.452662
        0.750464 1.12982 0.707545
        -1.1635 1.55824 -0.271445
        -0.20272 0.353886 0.277493
        -0.18789 1.78282 0.550375
        0.192148 1.08499 0.594919
        1.52825 1.43704 0.0437321
        1.22827 0.829663 -0.765301
        -0.161268 0.877039 -0.114243
        -0.745374 0.323728 -0.402952
        -0.352364 2.5911 0.0692476
        -0.814071 1.01283 -0.348816
        0.454885 3.0374 -0.486865
        0.436105 0.912739 -0.566224
        -0.249177 1.05096 -1.23208
        0.266099 1.82588 0.453475
        0.494611 1.43204 -0.705371
        -0.636017 1.62641 -0.635761
        0.138302 2.59937 -0.613723
        -0.593113 1.76335 -1.28611
        -0.455725 2.19364 1.2849
        -0.365208 1.05038 0.0464313
        0.099334 1.26838 0.321378
        1.18493 0.853943 -0.378138
        -0.636128 1.39194 -0.28136
        0.667528 1.05309 -1.24839
        0.558331 1.67356 -0.420254
        -0.784141 1.62015 0.47359
        -0.831443 1.51072 -0.0197986
        1.23832 0.945515 0.387386
        -0.373172 1.5176 -0.0739528
        -0.74097 1.56571 -0.9985
        -0.369779 1.11183 1.11895
        0.321008 0.682615 1.76856
        -0.278107 2.05802 -0.244843
        0.443447 0.911677 -0.659856
        0.37041 1.06162 -0.187904
        -0.224282 1.22766 0.610188
        0.734475 1.78718 0.941924
        0.74879 1.2095 0.398216
        -0.620706 0.892172 0.0475757
        -0.0854281 1.1342 -1.12247
        0.0761302 2.53276 -0.232554
        0.282008 2.45856 -0.350041
        -1.45259 0.758399 -0.819218
        0.0337627 1.15569 0.207775
        -0.535451 0.652521 1.7582
        -0.128097 1.52443 -1.21096
        0.625395 3.52389 0.12913
        0.464609 1.66503 -1.16709
        0.177267 0.832725 -1.04701
        1.01797 0.326019 0.344686
        -1.20486 1.52142 -0.330106
        0.804575 2.57668 -0.47125
        0.469137 1.06341 -1.03264
        -0.411752 2.49061 0.401063
        -0.60175 1.58773 1.0277
        -0.210807 1.35928 1.19989
        -0.649154 1.74147 -0.549342
        1.049 1.9917 0.117376
        -0.625967 1.04873 1.70443
        0.463928 1.46712 -0.327664
        0.192172 1.49227 -0.652319
        -1.4339 0.557862 0.780373
        0.60438 0.914727 -0.254545
        0.651575 2.11999 0.133457
        0.370299 0.866648 -0.26861
        0.0759918 0.956676 -0.0238078
        -0.52343 0.912368 -0.56285
        -0.414449 2.45906 0.378219
        -0.277716 0.402559 -0.587682
        -0.616652 0.144393 -0.0606205
        1.30306 0.592437 0.206527
        -0.835417 -0.0988064 0.315672
        0.17809 2.0256 -0.663354
        -0.125198 1.48986 0.967354
        -0.0598442 0.956111 -0.546096
        0.34588 1.0115 -0.17121
        -0.114453 0.787363 0.639035
        -0.15627 3.14082 -0.709355
        -0.817339 1.32086 -0.263186
        -0.171022 0.393096 -0.782601
        0.959329 2.62074 0.388788
        0.657608 1.12259 -0.468465
        -0.975241 0.979913 0.941417
        -1.35473 0.993283 0.783842
        0.0897502 0.210827 -1.10091
        1.69477 2.52045 0.55486
        0.238663 2.08899 1.0203
        -0.378378 3.05528 0.56915
        -0.149078 1.18339 -0.844023
        0.0546992 2.32842 0.822531
        -0.716739 1.93643 0.538204
        -0.65395 1.60956 -0.698007
        0.363044 1.54103 -0.883005
        1.35348 0.0926578 -0.165172
        -1.13145 0.739983 -1.39015
        1.54064 0.693521 0.337029
        -0.705369 2.41234 -0.666493
        -0.297128 1.63115 0.22202
        -0.785345 1.55779 1.13979
        0.208919 1.92774 0.913121
        0.0216253 1.79785 0.154045
        -0.795132 0.995586 0.570128
        -1.08808 1.06522 -0.343372
        -0.0187623 1.2621 0.095535
        1.19659 1.668 0.180515
        -1.89898 1.44426 -1.59942
        -0.0896433 0.219354 0.247081
        0.00190351 -0.323054 -0.602319
        0.396541 -1.36169 -1.25202
        -0.419693 -2.71544 -0.70306
        -0.615261 -0.702111 -0.152109
        -0.219194 -1.82747 -0.580852
        -0.36046 -0.834251 1.6005
        -0.767768 -0.633764 0.47242
        0.598768 -1.24966 -0.30698
        -0.207068 -1.90353 1.36663
        0.616684 -1.24457 0.608442
        -0.585822 -1.63134 0.586146
        0.417006 -1.65946 -0.470359
        0.38881 -0.575078 0.259506
        -1.21835 -1.66481 0.760347
        -0.238903 -1.21117 -0.21466
        -0.360828 -0.0477242 0.648806
        -0.687345 -0.107132 -0.993729
        0.172568 -2.24608 0.901401
        -0.219784 -2.1815 -0.339264
        -0.491037 -0.831753 -0.235523
        0.369779 -1.11183 -1.11895
        0.335783 -1.96221 -0.493099
        -0.665355 -2.44857 -0.123447
        0.730846 -1.90209 0.0873056
        0.383753 -1.25972 0.81806
        -0.0752711 -1.58764 0.239357
        -0.333026 0.0100298 -0.483715
        -0.113664 -2.65597 2.07311
        0.756955 -1.38335 0.616448
        -0.80679 -1.59331 -0.57595
        -0.103461 -0.794519 -0.568412
        0.0544893 -0.897226 0.885278
        0.447183 0.0784183 0.851935
        0.834645 -2.83958 0.0159079
        -0.27358 -1.48488 -0.528002
        -0.584976 -1.41154 0.331443
        -0.119775 -1.54227 -0.545784
        -0.173148 -0.521833 0.110044
        -0.831621 -0.73995 -0.248572
        0.200509 -0.879422 -1.41242
        -0.209076 -1.07372 -0.111614
        -0.512793 -1.26057 -0.589321
        -0.0854783 -0.567457 0.989959
        -0.540691 -1.60905 0.15029
        0.812001 -2.573 0.566045
        -0.190893 -1.40045 -0.684945
        0.109764 -0.300001 -0.970196
        0.797498 -1.09661 0.487729
        -1.53347 -1.11204 -0.671921
        -0.149522 -2.0585 0.11437
        0.806992 -1.40994 -0.62707
        0.650475 -2.13064 0.959428
        0.341386 -1.42061 0.0800333
        -1.21603 -0.876618 0.166475
        0.242027 -1.7404 -0.971569
        0.0154805 -1.18104 -1.50212
        1.11224 -2.17204 0.24872
        -0.909495 -1.85349 0.202975
        -0.750464 -1.12982 -0.707545
        0.035232 -1.2547 -0.681768
        -0.733423 -0.792938 -0.787819
        -0.705962 -1.33645 0.281111
        -0.643222 -2.04952 1.84225
        0.301976 -1.12011 0.413803
        0.46782 -1.26721 -0.222176
        0.746241 -1.50283 0.28115
        0.828068 -1.79907 0.438286
        -0.497002 -0.116415 -0.675925
        -0.224933 -1.51394 0.757307
        0.363163 -2.51734 0.295116
        -0.460149 0.00393365 -0.707213
        -0.0524054 -1.96177 -1.7806
        0.523141 -0.19129 0.12149
        0.308811 -1.2489 -0.656988
        -0.208723 -1.62835 0.0276438
        0.603517 -1.02463 -1.21261
        0.856242 -2.08845 -1.08075
        -1.13193 -0.862943 -0.307626
        -0.652699 -1.88121 0.194786
        -0.0764155 -0.17798 0.324912
        0.445844 -0.59384 -0.717222
        -0.946156 -1.27179 -0.0762751
        -0.0553864 -1.17844 1.00677
        -0.0436625 -0.88602 0.129785
        0.0976283 -1.78874 0.0472652
        0.617439 -0.922584 0.7249
        -0.0761302 -2.53276 0.232554
        1.23534 -1.22943 0.744506
        -0.81407 -1.82824 0.699306
        0.16715 -2.49289 -1.77383
        0.891215 -1.14941 0.498487
        -0.280848 -2.30045 -0.842216
        -0.403617 -1.78908 -0.181947
        0.511416 -0.597428 0.607148