<?xml version="1.0" encoding="UTF-8" standalone="no" ?>
<VTKFile byte_order="LittleEndian" type="UnstructuredGrid" version="0.1">
  <UnstructuredGrid>
    <Piece NumberOfCells="0" NumberOfPoints="1764">
      <PointData>
        <DataArray Name="velocities" NumberOfComponents="3" format="ascii" type="Float32">
        -0.997874 -4.03335 0.375674
        -0.306869 -2.68713 -0.73115
        -0.771807 -3.45122 0.813227
        -1.15572 -3.89176 -1.07202
        1.75824 -1.03977 0.576148
        1.06275 -1.51086 1.09107
        -1.39558 -3.22733 -0.689418
        -0.25915 -2.80536 0.304152
        -0.699918 -1.95024 0.458572
        -1.00122 -3.69632 -0.283182
        -0.592863 -2.82525 -0.609782
        -0.405751 -4.03073 -0.227928
        -1.52755 -2.45822 -1.03827
        -0.745258 -3.12165 0.175456
        0.757963 -2.60495 0.596635
        1.03548 -1.41474 0.314613
        -0.492991 -1.73998 0.469982
        0.279133 -1.08752 -0.816831
        0.0257099 -2.90406 -0.497926
        0.450103 -3.44618 -0.509493
        0.671882 -2.22573 -0.827062
        -0.691249 -1.50835 -0.017618
        -0.375642 -1.99839 -0.567961
        0.46827 -1.12524 0.272153
        0.959059 -1.2882 -0.0948128
        0.335677 -1.61095 -0.608657
        -0.131697 -1.44605 -0.445048
        -0.0590607 -2.22257 -0.315768
        -0.432722 -2.87673 0.314007
        0.608239 -2.73071 0.77407
        -0.771058 -2.18798 0.253243
        -0.887025 -1.92627 -0.256448
        1.56105 -1.45439 0.650005
        -0.00779945 -2.12117 0.772975
        -0.325036 -2.86697 -0.321054
        -2.0159 -3.12245 -0.724464
        -0.826482 -3.99416 -0.499554
        0.418326 -2.66845 -0.296853
        0.507238 -2.64471 -1.0699
        -1.19999 -1.7279 -0.406311
        -0.838901 -1.29758 -0.228428
        -0.234635 -1.61362 -0.247883
        -0.247796 -1.59267 0.181644
        -1.57565 -1.00394 -0.0729575
        0.946549 -2.30226 0.159855
        -0.0976644 -2.328 0.204601
        1.57747 -1.91994 0.176696
        0.121844 -2.03431 0.79757
        -1.40678 -0.944209 -1.01102
        0.174972 -2.79916 -0.0833757
        -0.286853 -3.01125 -0.596467
        -0.88653 -2.27441 -0.747196
        -0.892243 -1.44804 -0.559933
        0.568417 -2.69542 -0.901183
        -0.789088 -2.17015 -0.821927
        -0.589859 -1.79141 -0.128985
        0.330974 -1.87334 -0.417383
        0.136726 -1.79503 -0.484626
        -0.167249 -2.54517 -0.764035
        -0.147465 -2.86124 0.184514
        -0.307013 -2.94907 0.657666
        -0.308673 -3.23945 0.211478
        -0.638648 -1.6231 0.715555
        -0.273771 -3.39018 0.288269
        0.223318 -0.976328 0.407606
        0.684833 -3.63507 0.58496
        0.181863 -2.41513 -0.350859
        0.721414 -2.33073 -0.178901
        0.71782 -2.36335 0.0349469
        0.28372 -2.02355 0.0755159
        -0.315852 -2.64058 -0.461513
        0.44702 -1.5167 0.0365597
        0.0704751 -2.40641 -0.804835
        0.403856 -2.29697 0.363497
        1.12194 -2.56122 0.202148
        0.475819 -1.46506 0.965328
        0.153994 -3.13953 0.77395
        -1.30519 -0.152573 0.293052
        0.523884 -1.53644 0.181445
        0.367965 -2.2687 -0.793023
        0.929346 -0.979339 0.0907651
        -0.0603514 -0.579628 -1.15007
        -0.235703 -1.56579 1.12083
        1.08983 -0.553347 0.316543
        0.276602 -1.1774 -0.955933
        0.386815 0.207496 -0.671407
        0.026027 -2.12776 0.622868
        -0.0635733 -1.00313 0.0968334
        0.700244 -3.11817 -1.28931
        2.17443 -1.51921 0.0450063
        0.697719 -1.16194 1.01669
        -0.613388 -2.02137 -0.649155
        1.34561 -1.12701 -0.532483
        0.211093 -1.35449 0.227329
        1.0384 -2.06753 -0.725469
        1.44629 -3.51771 0.958344
        0.463605 -2.95792 -0.147638
        -2.72483 -0.881558 0.342306
        0.0154427 -1.08341 0.193158
        0.0454902 -3.046 -0.174491
        0.383108 -0.864576 -0.0272362
        0.0625406 -1.80056 0.114125
        -0.555513 -0.809247 -0.23346
        -0.24175 -1.32074 -0.951103
        1.79804 -0.972228 0.741515
        -0.183818 -0.916932 0.436798
        -0.531841 -1.43736 -0.263092
        0.495957 -0.810254 -0.0698241
        0.773952 -0.604607 0.321157
        0.224872 -1.68079 -0.82647
        -0.0591122 -1.64184 -0.738454
        0.449519 -1.76499 -0.686232
        -0.959446 -3.32665 -0.0589594
        0.0781814 -3.10462 -0.218368
        0.027599 -1.20639 -0.313717
        -1.33467 -1.31659 -0.320259
        -1.89289 -1.09442 -0.343776
        -1.72658 -1.09235 0.00910388
        0.229191 -1.3013 -0.466994
        0.480067 -1.74596 -0.467555
        2.1904 -0.97183 -0.286971
        0.418135 -0.77991 0.689367
        -0.393163 -1.5437 -0.221779
        0.717942 -1.27209 -0.269332
        0.0813174 -1.14679 -0.53146
        0.071077 -3.04557 -0.114745
        -1.04516 -0.805055 0.60954
        1.27337 -1.03961 0.245427
        -1.40491 -0.767191 0.356765
        -0.222892 -3.14506 0.00595196
        -0.125022 -3.19155 -0.474548
        0.287319 -0.775965 0.525021
        -0.934227 -1.49386 -0.692995
        -1.54178 -0.877186 0.427514
        0.937006 -1.06026 -0.058858
        0.16393 -1.04862 -0.256351
        -0.0114073 -1.52342 -0.370474
        0.0608095 -1.2416 -0.737031
        0.725314 -1.02566 0.0670848
        0.203736 -1.53797 0.441861
        -0.426108 -1.76397 -0.239757
        -1.11657 -1.85498 -0.201482
        -0.376904 -0.839087 0.666645
        0.527931 -1.32505 -0.64466
        0.149375 -1.20482 0.446098
        1.36427 -1.78816 -0.209451
        1.12039 -0.91359 0.299424
        -0.0839341 0.0987583 0.954906
        1.02451 -3.3888 -0.25299
        2.11107 -1.30315 -0.605727
        -0.064257 -2.1093 -2.13914
        -1.63304 -0.974499 0.119037
        1.03592 -1.85758 0.59433
        1.25654 -2.5061 -1.15333
        0.240699 -1.43877 -0.563018
        -0.133206 -0.680474 -0.745829
        -2.28065 0.693464 0.402059
        0.145892 -2.21342 -1.32683
        -0.0176972 -3.55052 -0.0866082
        0.736552 -1.74854 -0.0370408
        -1.56216 -2.72043 -1.553
        -1.51184 -1.22624 -0.0771018
        0.150869 -2.27856 0.725865
        0.39227 -0.499719 0.813682
        0.992488 -0.0815351 0.223224
        0.0802495 -0.157595 0.492733
        0.642595 -0.708275 0.584556
        0.408626 -0.239021 -0.230779
        -0.792905 0.94582 1.75662
        2.49435 -1.27841 0.14951
        -0.539228 1.96453 0.306795
        0.407972 0.807141 -2.65272
        -0.251804 0.137845 0.924383
        1.14872 -0.231147 0.3435
        0.315846 1.55251 -0.736117
        -0.709017 0.373877 -0.9652
        -0.995544 0.262699 -0.172974
        -0.619666 0.184463 0.244161
        0.16331 0.719975 -0.601954
        -0.0909824 -0.110041 -0.5754
        0.328492 -0.359958 -0.0618798
        0.834826 0.285926 0.210639
        -0.126978 -0.0931908 -0.180642
        1.23159 -0.04858 -0.254234
        -0.470435 0.617373 -0.408545
        0.336308 -0.434329 -0.832426
        1.37491 0.440358 0.197434
        0.633553 1.29002 -0.238487
        2.62784 -0.427098 0.0016368
        0.609301 0.787972 -0.104388
        -0.246055 0.791293 -0.191586
        -0.719437 -0.375106 0.484132
        -0.987494 0.569758 0.44265
        0.0576484 0.464023 -0.00727345
        1.18137 0.490001 0.120498
        -0.278736 0.809241 -0.18051
        -0.929134 -0.111142 0.0318739
        -0.164938 0.385426 0.18026
        2.24456 0.344792 -0.192084
        0.632322 -0.0728396 -0.0499931
        0.800061 -0.413313 -0.0661539
        -0.63388 0.370229 0.225617
        1.39765 0.283045 0.174749
        1.30519 0.834924 -0.157865
        -1.15092 -0.378043 -0.0267585
        -0.556769 0.717447 -0.206799
        -1.04377 0.981187 -0.013528
        0.182456 0.711154 -0.297453
        -1.35316 0.732213 -0.0955358
        -0.67694 0.516156 0.108657
        -1.97129 -0.0557983 -0.201373
        0.458761 -0.618301 -0.20281
        -0.357092 0.433044 0.0591718
        -0.541697 0.587392 -0.320336
        -1.18486 0.909228 -0.149
        0.391886 1.03054 -0.569871
        0.396253 -0.404608 -0.209105
        0.191038 -0.570287 -0.336767
        -0.0866595 0.140382 0.235953
        1.02213 0.61805 -0.470682
        0.308475 0.949761 -0.104343
        -0.851537 0.357426 -0.281991
        -0.303747 0.643704 -0.166668
        -1.76599 0.524397 0.276734
        -0.771686 -0.615226 -0.163868
        0.707364 0.553058 1.2214
        -0.37487 -1.5722 -0.484158
        0.782406 0.627231 -0.55957
        -0.193398 -0.222134 -0.531496
        0.668279 -0.646348 0.288782
        -0.992627 -0.390886 1.1161
        -0.923941 -0.99183 0.376833
        1.52519 -0.509256 1.61669
        -0.489455 -1.47234 1.77532
        -0.5273 -0.811266 -0.460037
        0.859529 0.0961568 0.864229
        0.0362222 0.678654 1.27771
        1.11921 0.342939 -0.471796
        -0.11014 0.367972 -0.783546
        -0.858857 0.691342 0.978277
        -0.474457 -0.856368 -0.167255
        0.499071 -0.868018 1.19385
        0.89016 0.508137 -0.567922
        0.333494 2.64476 -0.311325
        -1.59227 2.98839 0.218999
        0.104987 2.34832 -0.496851
        0.397158 1.18663 1.15698
        -0.283202 2.72874 0.268222
        -1.13278 1.82568 1.29052
        -0.512796 2.66576 0.615635
        -0.0540721 -0.0598673 0.584892
        -1.00881 1.34927 0.326524
        -0.857897 0.269018 0.847626
        0.373745 2.60036 -0.403193
        1.10082 2.23719 -0.427986
        0.104538 0.859668 0.131712
        -1.03012 1.8282 -1.37895
        -0.287564 1.80375 -0.772835
        -0.64496 2.80961 -1.41397
        0.542566 1.93066 1.03413
        -1.67213 3.54332 -0.317079
        -1.02773 2.70901 0.184862
        -0.0162416 1.18782 -1.12818
        0.396581 1.95109 0.472161
        0.802048 2.26507 -0.798993
        0.365511 1.10752 0.601529
        0.0481746 2.57078 -0.245805
        1.2289 2.15535 0.4849
        0.441634 2.30629 0.319876
        -0.649431 0.771101 0.51991
        0.194134 2.49004 -0.577915
        0.342581 3.00945 -0.701971
        -0.931989 1.65998 -0.25787
        -0.973715 2.43786 -0.099364
        0.400851 1.49702 0.367903
        0.161554 1.91625 -0.760205
        -0.577434 1.54369 0.53918
        0.482328 2.51504 -0.333537
        1.65442 0.433802 0.670048
        0.324883 0.762786 0.521689
        -0.230808 2.71643 -1.14944
        -1.49495 0.975698 0.589732
        0.906274 1.53594 0.303484
        -2.27756 1.44874 0.266217
        0.566083 3.01512 -0.4607
        0.973465 0.681783 0.329585
        0.188975 2.32594 -0.217109
        0.104862 3.04563 -0.284343
        -1.34848 1.81965 -0.924419
        -1.51087 2.25241 -0.137661
        -0.732304 2.75209 -0.254854
        0.23057 3.53173 -0.0708097
        0.304891 2.33155 0.950409
        -0.344099 2.26782 1.0319
        -0.61224 2.60104 0.399054
        0.0254265 3.39103 -0.688953
        -0.0978451 1.87479 -0.305788
        0.261529 2.50913 0.107149
        -0.543631 1.54925 0.664958
        -0.729811 0.721815 0.314339
        0.0165822 1.73584 0.679277
        -0.649721 1.95235 -1.10757
        -0.953229 2.75051 -0.00927537
        0.518085 2.93155 -0.078898
        0.526787 1.17955 -0.902739
        -0.142243 2.38448 -0.362696
        -0.130517 2.37684 -0.227308
        0.531385 1.9962 0.353112
        -0.482543 1.05197 0.595483
        -1.14155 1.78412 0.592097
        0.295889 1.87436 -0.113844
        0.196144 2.02669 -0.743773
        0.332414 0.774989 1.06146
        -0.308349 1.75815 0.0417751
        -1.76073 1.96101 -0.557975
        -0.527838 3.25053 0.00681268
        0.227504 -0.970389 -1.44311
        0.0169825 1.04671 -0.587927
        0.19091 3.62285 -0.785409
        1.68049 2.85385 -0.703606
        0.519378 1.01648 -0.459397
        0.50126 1.21869 1.39147
        -0.703844 1.53088 -0.823508
        -1.23827 2.26142 0.461918
        1.02701 0.456996 -0.897168
        -1.13134 0.370765 0.684839
        -0.311504 2.6389 0.672612
        0.271906 -0.0239732 -0.44606
        -0.507805 1.63987 0.463277
        -1.30788 3.23695 -1.85101
        -1.37037 1.7181 0.670547
        0.376002 3.14882 0.0254891
        -0.733746 1.61226 -1.47772
        0.43585 0.785287 -0.296928
        0.478178 1.4031 1.13528
        0.0557694 2.96675 -0.864097
        0.409637 3.07374 -1.12565
        -0.215436 1.55395 0.305227
        -0.741387 2.30785 -0.608157
        -1.05566 1.67874 -0.956022
        0.0772951 2.16006 -0.478661
        0.357404 2.08888 -0.808578
        0.504037 3.59984 0.140074
        -1.11508 1.85947 0.153014
        -0.612316 2.52752 -0.622012
        -0.094141 2.01263 0.152798
        1.76982 2.0526 -0.00690563
        0.179785 1.57401 0.591513
        1.29025 1.35005 -0.293655
        -0.0692516 1.56374 -0.765103
        0.588558 2.0863 -0.422531
        0.534964 2.04672 -0.488389
        -0.568482 1.82805 0.0136496
        -0.000464696 1.79861 -0.381893
        0.0642867 1.79442 0.0703605
        -0.0835014 1.72698 -1.02668
        1.22886 2.11624 -0.157449
        0.171126 1.41018 0.351406
        0.497745 1.04764 0.545438
        -0.285455 1.54669 -0.384331
        1.25244 0.896066 -0.266197
        1.25386 1.08647 -0.602227
        0.175221 1.67412 -0.237539
        -0.637793 1.44167 -0.413031
        1.6786 2.02311 -0.48184
        0.166317 2.06874 -0.660563
        -0.413846 1.91432 -0.430903
        0.145405 1.57286 0.328514
        -0.803231 1.89154 0.385875
        0.578902 3.05765 -0.591412
        -0.97931 1.03999 -0.387713
        -0.486865 1.60437 0.455018
        -0.042416 1.393 -0.253311
        0.480918 1.74859 0.123842
        0.263781 2.13006 -0.981215
        0.933754 2.18168 -0.329085
        0.472076 1.52717 -0.62289
        1.31038 4.04186 -0.0289552
        0.404187 2.73489 0.507465
        0.129004 2.51422 -0.164014
        -1.28841 2.35459 -0.397431
        1.71986 3.05415 -0.070739
        0.837147 3.20249 -0.453837
        0.594034 1.98183 -1.21962
        1.0028 3.24201 -0.823209
        0.87027 1.51819 0.131095
        1.3004 3.19063 0.474997
        -1.47438 -2.8524 0.54481
        -1.56034 -2.47434 -0.252538
        -1.38799 -2.24993 0.416366
        -0.847646 -2.60031 0.00660219
        -0.0566774 -1.39256 -0.316468
        0.651987 -2.03592 0.661749
        -0.122737 -1.6527 -0.358805
        -1.65638 -2.08804 -0.52368
        -0.847285 -1.09133 -0.23368
        0.268592 -2.38334 -0.0630208
        0.438967 -3.81217 0.945468
        -0.320681 -3.62415 1.01526
        -0.666153 -1.95533 0.274518
        -0.451439 -1.9624 -0.0179981
        -0.0191536 -1.14331 0.118809
        -0.235304 -1.91392 -0.444109
        -0.0630329 -2.28043 -0.154654
        -0.873779 -1.7513 0.143819
        -0.163645 -1.88011 0.0717016
        -0.0219677 -2.10414 -0.208426
        -0.115321 -1.4859 -0.0591549
        -0.183371 -1.49848 -0.0941705
        -0.426991 -0.882028 0.251591
        -0.0893086 -2.47837 0.164187
        0.800152 -0.971424 0.608008
        -0.673478 -0.74134 -0.379615
        0.844799 -1.83654 -0.127214
        -1.17214 -2.20453 -0.188498
        -0.415093 -1.62569 -0.131389
        -0.545506 -2.11443 0.571483
        -1.0635 -2.86776 -0.0103421
        -0.322126 -1.65634 0.0161093
        -0.158594 -1.46612 -0.0878931
        -0.147057 -1.49732 0.183314
        -0.753951 -0.842752 0.266197
        -0.243918 -1.53034 0.367856
        0.832756 -1.90973 0.28694
        0.24725 -1.65526 -0.107494
        -0.210132 -2.24116 0.362784
        0.403377 -1.85193 -0.149643
        -0.439663 -1.82996 -0.0261759
        0.472187 -2.58805 -0.190469
        0.552808 -2.32534 0.347485
        -0.0612657 -1.98883 0.0895442
        -0.687481 -1.52062 -0.145273
        -0.655084 -1.87285 -0.175007
        -1.24575 -1.27429 0.315189
        -0.0249169 -1.34696 0.0829585
        -0.185331 -1.82575 -0.643681
        0.606833 -1.18408 0.0426664
        -0.825054 -1.02773 -0.767832
        -0.304115 -0.769917 -0.143734
        0.567666 -2.06178 -0.100314
        0.217071 -2.83997 -0.800757
        1.45572 -2.45017 0.288477
        1.38738 -1.57847 0.52493
        -0.682159 -2.15507 0.317301
        0.432043 -1.63869 -0.230253
        -0.351989 -2.98509 -0.319672
        0.119618 -2.26075 -1.26953
        -0.0206997 -2.60972 -0.0161476
        0.606561 -2.38043 -0.21039
        2.02307 -1.84825 0.203229
        0.288192 -0.729899 -0.392705
        0.0775185 -1.19714 0.493668
        -0.0943616 -0.72122 0.810777
        -0.857345 -2.09323 1.08719
        1.54938 -0.992719 -0.476095
        -0.0890577 -3.37815 -0.756429
        0.300788 -3.00046 -0.0325589
        1.11613 -0.749104 -0.692669
        -0.713414 -1.48677 0.154709
        -0.990649 -2.5903 0.198851
        0.310159 -0.88728 -0.0195849
        1.14809 -0.413316 2.73025
        1.07077 -0.504963 -0.993355
        0.0494371 -1.51493 -0.764743
        -0.51444 -2.17414 0.184924
        0.729815 -2.76138 0.0573337
        -0.823694 -1.4797 0.103596
        -0.792089 -0.643041 -0.186761
        0.746027 -0.840287 -0.333798
        1.51649 -0.867746 -0.545222
        0.71006 -2.49993 -0.00322332
        0.421173 -1.91551 0.551828
        0.54959 -1.69838 0.0997615
        -0.478341 -1.27109 -0.0416458
        1.68606 -1.24618 -0.463855
        1.85895 -1.32362 -0.544196
        -0.0624391 -1.17385 -0.50158
        -0.0379735 -0.795105 0.719349
        -0.518423 -1.71828 0.321885
        0.378199 -0.951138 -0.096832
        0.562661 -2.41595 -0.151373
        2.02954 -1.64509 0.170152
        -0.820989 -1.31104 -0.600373
        -0.21708 -2.69139 0.141989
        -0.769317 -1.49741 0.0917914
        0.0127504 -3.0408 0.128201
        -0.428307 -0.848386 -0.0929437
        0.941494 -1.19788 -0.711989
        1.13318 -1.16094 -0.558644
        -0.25537 -2.47711 -0.725459
        0.110952 -1.26562 -0.654338
        -0.253393 -2.09005 -0.455598
        -0.406793 -1.18988 -0.545895
        0.60459 -0.342479 0.397778
        -0.173779 -1.28562 0.0217063
        0.591002 -1.70593 0.30511
        -0.904192 -2.66367 0.198791
        0.45488 -0.723989 -0.425964
        0.546928 -1.64012 -0.687139
        0.490361 -2.47881 0.340112
        0.730942 -0.844895 -0.264043
        -0.707855 -1.70997 -0.688554
        -0.905439 -1.99136 0.119736
        0.425979 -1.191 -0.540278
        0.955434 -1.1614 -0.615429
        0.865258 -0.694832 -0.755122
        0.197773 -0.890346 0.47271
        -0.260228 -0.694452 0.384552
        0.866938 -2.80848 0.263863
        -0.0852714 -2.04334 -0.983067
        0.819275 -1.98591 -0.375365
        1.57802 -1.52285 -0.248932
        -0.350812 -2.29569 0.544886
        -1.21866 -0.162757 0.119361
        2.47046 -2.20317 -0.716681
        0.536984 -1.49074 0.481273
        0.819309 -1.27939 0.389048
        -0.0183749 -0.647452 0.448297
        -0.0355968 -3.29042 -1.25053
        -0.819255 -0.561303 -0.218829
        -2.27434 -0.803132 0.0305525
        0.830469 -1.49644 -0.580816
        0.160581 -2.24597 0.113752
        0.281068 -2.37383 -0.161018
        0.167465 -2.24013 0.882083
        -1.32923 -0.395098 -0.403959
        0.609182 -1.35136 -0.0147437
        0.06977 0.0292876 -0.754677
        -0.276773 -1.61028 0.0952667
        -0.940111 1.62979 0.514984
        -0.316095 0.463448 -0.374284
        -0.662675 1.15244 -0.0462494
        0.97037 -0.98801 -1.19116
        0.173232 -1.17605 -0.436235
        1.55802 -0.267027 0.194276
        -0.0988043 -1.09875 -0.13368
        2.12067 0.723729 -0.0357515
        -0.860012 2.22723 0.306686
        -0.155362 -0.706692 0.104493
        -0.380696 0.51841 -0.0361437
        0.253059 0.0491659 -0.203269
        0.974616 0.281139 0.148067
        -0.464139 1.25603 -0.0158309
        0.910843 -0.258115 -0.0351487
        -0.426029 1.02377 -0.474457
        0.630391 -0.816503 0.116905
        0.250335 -0.706047 0.0566356
        -0.766614 1.26275 -0.807194
        0.123907 -0.853978 0.156913
        -0.333645 0.269415 -0.00320079
        -0.728182 1.30087 0.100887
        -0.665138 1.06 -0.461856
        -0.803465 -0.554867 -1.01269
        0.494786 0.271881 -0.900891
        0.384603 -0.0710903 -0.903181
        0.169275 0.592683 -0.0573561
        0.622542 1.27428 -0.194403
        -0.610916 -0.564419 -0.0943884
        -0.0935229 1.22417 -0.180667
        0.30225 -0.507175 -0.132399
        -0.0511648 0.348405 0.259864
        -0.125032 0.235665 0.237052
        -1.26305 0.0479607 -0.156392
        -0.350267 1.37006 -0.247566
        -0.365889 0.0346533 -0.154176
        -0.167857 1.01339 -0.412936
        -1.24712 1.07445 -0.40262
        -0.1817 1.09062 -0.554809
        0.49 -0.123959 -0.900229
        -0.2204 -0.0816925 -0.896978
        0.542026 -0.107329 -0.930497
        0.167567 0.482034 -0.069522
        -0.486271 0.881877 0.670069
        -0.398095 0.281698 -1.42776
        0.344002 0.186227 -0.0886872
        -0.745365 -0.738326 -0.132835
        0.345052 -0.809416 0.136564
        0.37625 0.12597 -0.734499
        -0.0136211 0.671639 0.461989
        -0.943491 0.654263 -1.1046
        -0.625312 1.14632 -0.526545
        -1.52475 1.30826 -0.126421
        0.793043 -0.647383 0.827684
        0.64908 1.01027 -0.337821
        -0.988577 1.25712 -0.335468
        1.0804 -0.744891 -0.450634
        0.462054 0.139445 -0.920616
        -1.20972 -0.724474 0.403297
        -0.111947 -0.258888 0.780484
        -0.49551 -0.518665 0.250316
        -1.05925 -0.255812 0.0165495
        0.0415876 -0.443842 0.621595
        -0.479589 1.19463 1.00263
        -0.160503 -1.86926 -0.351849
        -0.977595 -0.914319 -0.862556
        0.654402 3.32763 0.0547374
        0.329652 -0.278178 0.844244
        -0.247146 -0.990393 -0.83707
        -0.113241 1.86167 -0.264068
        -2.05878 0.0880419 1.20663
        1.26862 0.6761 0.513443
        1.0531 -0.953145 -0.753046
        0.416338 0.452869 0.141377
        0.0204206 3.01083 -0.149068
        -0.617579 1.23145 -0.991268
        0.738281 1.43936 0.148009
        -0.475112 2.30179 0.832664
        -0.607938 2.66612 0.284699
        -1.52659 1.36512 1.01469
        0.274171 0.201924 -0.512171
        -0.42031 2.96466 0.708059
        0.271579 1.90155 -0.485423
        -0.0425999 2.41622 0.479101
        1.25062 1.09949 -0.322206
        -0.997271 2.71283 0.971132
        -0.330523 1.60992 -1.19091
        -1.27368 1.83481 1.05806
        0.331852 2.53132 0.222115
        -0.543172 2.27765 0.292249
        -0.592501 1.87153 -0.286246
        0.969542 0.468003 -0.441825
        0.235118 0.991163 0.170699
        1.1008 2.01419 0.301764
        0.159039 2.73962 1.05632
        0.176334 2.41407 0.0699347
        1.15551 0.773493 -0.476613
        0.280746 2.15408 0.489426
        0.968092 2.20591 0.375933
        0.229306 1.64352 -0.205054
        -0.679579 1.34557 -0.669743
        -0.407687 1.27406 -0.687567
        0.682676 1.16353 -0.631117
        -0.458655 1.80021 -0.482625
        -0.201598 2.41828 -0.0388711
        -1.11308 1.83798 0.655454
        -1.73974 1.56044 -0.231565
        0.377194 1.5991 -0.267923
        1.01563 1.47242 -0.0829113
        0.103196 2.47319 0.207171
        -0.633318 1.41283 0.0295193
        -0.0986046 1.98454 0.711458
        -2.37525 1.08698 -0.55909
        0.32267 1.10412 -0.585981
        -0.0711651 0.767214 0.299681
        -0.383648 1.81515 -0.520396
        -0.813532 1.74957 -0.388944
        -1.551 2.60867 0.55007
        0.277644 2.29031 0.759764
        0.370166 0.347699 -0.299101
        -0.596556 2.21842 0.379788
        0.529649 1.99043 0.524387
        0.0823532 2.13881 0.274532
        -0.459506 2.03865 0.463964
        -0.0906059 2.1745 0.272053
        0.770079 1.69386 0.397463
        -0.300672 1.18799 -0.664046
        -0.725472 1.67391 1.09351
        -0.12703 0.910759 0.952267
        -0.311694 2.79703 0.109533
        0.26113 0.748914 -0.306719
        0.450859 3.08992 0.34954
        -0.479889 0.269078 -0.20056
        0.318852 1.61206 0.247498
        0.814225 2.52237 0.922627
        -0.277272 1.36295 0.606501
        0.1607 0.326228 -0.981533
        0.0213337 0.211444 0.570828
        0.25294 0.921899 -0.587087
        0.132873 0.720572 -0.357074
        -0.921062 1.79126 -0.321934
        -1.19988 0.836724 0.198969
        -0.824401 2.44397 0.164998
        -1.85364 2.68387 -0.370435
        -0.501741 1.88266 -1.36029
        -0.119628 2.42571 -0.80831
        0.264911 3.26417 -0.718159
        -0.377432 1.62952 -0.268509
        -0.489608 2.54311 0.280113
        0.368211 1.66302 -0.34129
        -0.744606 1.60285 -0.126618
        0.158182 2.20863 0.0552633
        1.42305 2.42901 -0.248076
        -0.383433 2.4758 0.0656824
        0.55573 2.23991 -0.392829
        0.559316 1.69991 -0.424745
        -0.800539 1.75194 -1.1158
        0.571081 2.09204 -0.219572
        0.0395598 2.12252 0.0549314
        1.04697 2.04387 0.00823169
        0.314669 1.50178 -0.367957
        0.440683 1.33882 -0.345541
        0.996887 1.3744 -0.833551
        0.151742 2.23611 0.182725
        0.147146 1.94825 -0.659636
        2.24196 1.6248 0.496682
        -0.231488 1.30579 -0.781373
        -0.521945 1.95672 0.315015
        0.0453972 2.08169 -0.195455
        -0.553872 1.60078 -0.395235
        -0.229087 1.92986 -0.150702
        0.175496 1.96526 -0.16952
        -0.3547 2.11597 -0.123853
        0.965852 2.16955 -0.186523
        0.462418 1.95958 -0.528505
        0.962601 2.91718 -0.0554849
        0.946873 2.56389 -0.332164
        1.20922 2.56772 0.442575
        2.09187 2.48157 -0.487251
        1.05837 2.048 -0.26078
        0.847853 2.03848 -0.117664
        0.795565 1.2621 -1.06132
        -0.958908 -2.38817 -0.408218
        -0.752267 -1.52866 0.298883
        -1.15081 -2.21213 0.210194
        -0.970426 -2.03019 -0.339229
        -0.322108 -1.35046 -0.0620308
        -1.24063 -1.45857 -0.00961707
        1.27707 -0.411058 -0.802207
        -1.89636 -2.82201 -0.256219
        -2.02632 -1.86431 -0.0733786
        1.30373 -1.08845 0.623336
        0.441421 -1.49723 0.799754
        0.269807 -1.72275 -0.389621
        0.0857294 0.168981 0.618359
        -0.294891 -2.93286 -0.358006
        0.0417623 -3.2111 -0.634096
        -0.946714 -1.26095 0.0881535
        -1.2212 -2.00331 -0.401512
        0.570306 -1.25186 0.33721
        0.0237091 -1.66111 0.694653
        0.875125 -2.12248 0.742236
        1.02347 -1.41148 -0.190979
        -0.168624 -1.62075 -0.562026
        0.315991 -2.15938 -0.391001
        -0.51942 -1.8553 0.31607
        -0.154494 -1.72859 -0.138138
        0.0179823 -1.8493 -0.356508
        -0.424875 -1.46369 -0.255413
        -0.465796 -1.11878 0.0574288
        -0.558332 -0.535153 0.111983
        -0.333311 -0.985622 0.166794
        -0.189436 -1.3217 0.0361356
        0.258563 -0.645694 0.518399
        0.224922 -0.93333 -0.321487
        0.265016 -2.39333 0.199295
        -0.11926 -1.31737 0.355667
        -0.728908 -2.83745 0.802064
        0.0115589 -2.08772 -0.496473
        -0.109124 -1.14706 -0.507751
        -0.916768 -2.20457 -0.245678
        -0.167573 -1.90626 0.401845
        -1.20433 -1.37322 0.0149603
        -0.189478 -1.99997 -0.212631
        -1.42719 -1.55583 -0.328936
        1.71887 -1.70612 -0.229397
        0.302174 -1.47006 -0.117508
        1.41145 -1.43364 0.346336
        0.0185271 -0.539969 0.307358
        -1.3274 -1.66978 0.608692
        -0.560653 -2.19752 -0.855921
        0.899816 -1.60348 -0.152647
        0.763179 -2.03489 -0.389436
        1.00547 -2.44662 0.603758
        -0.947135 -2.29649 -0.0176185
        -0.489607 -1.46813 0.565114
        -0.257128 -1.19724 -0.368497
        0.990095 -1.86792 -0.00524498
        -1.19026 -2.0857 -0.344831
        0.235371 -1.18129 0.421312
        -0.593079 -1.8424 -0.104283
        0.605882 -1.63577 -0.828803
        0.625047 -1.13353 0.47183
        0.455137 -1.74112 0.0804834
        0.166564 -1.10972 0.28467
        -0.063816 -2.07253 0.509302
        1.29136 -2.79504 0.369815
        0.991353 -2.74094 -0.236696
        0.676031 -3.1502 0.399314
        1.12231 -2.35502 -0.422366
        0.175086 -3.25996 -0.0677846
        -0.393962 -3.12877 0.318007
        0.889792 -2.05802 0.215408
        1.48186 -2.1965 -0.295724
        0.014584 -1.94896 0.301626
        -1.13537 -2.29358 -0.182217
        -0.0312996 -2.19748 -0.317482
        -1.37146 -0.970704 0.0256405
        0.333134 0.0215343 0.551744
        0.42672 -1.72136 0.169363
        1.74074 -0.819365 0.49699
        1.00995 -1.05705 0.58789
        -0.147615 -2.35546 0.123183
        0.610303 -2.31318 -0.864518
        -0.476675 -4.27011 -0.569465
        1.21884 -3.17208 0.551085
        -0.763108 -3.84005 0.613535
        -0.21704 -1.99163 0.25518
        -0.0572525 -1.33281 -0.225903
        -0.12511 0.263854 -0.972597
        1.75804 -2.10236 -0.601399
        -1.30391 -1.16291 -1.23678
        -1.85592 -0.0388552 1.04198
        -1.04359 -3.99445 0.860219
        -0.979776 -3.70032 -1.85209
        -0.162113 -1.42306 -0.370004
        -0.692011 -1.83383 -0.00044911
        -0.414117 -1.30321 -0.538507
        0.300672 -1.18799 0.664046
        0.51878 -2.2003 -0.347795
        -1.006 -1.47368 -0.0819728
        0.0693264 -2.34393 -0.176513
        0.379007 -1.1201 -0.196418
        0.418899 -2.67391 -0.00793947
        -0.341789 -0.803556 -0.404186
        0.0297231 -0.909229 0.146038
        -0.129726 -1.38926 0.0679072
        0.451499 -1.59832 0.326634
        0.191867 -1.32653 -0.194633
        1.58536 -1.44305 0.0782992
        -0.037229 -1.66206 0.0654434
        -0.930413 -1.34817 0.116483
        2.41007 -0.931658 -0.175896
        -0.255867 -1.34498 0.0860961
        0.0951988 -1.98292 -0.177882
        -0.682676 -1.16353 0.631117
        -0.678624 -1.04386 -0.173032
        -0.32267 -1.10412 0.585981
        2.37525 -1.08698 0.55909
        0.102807 -2.68615 -0.0806207
        -0.380847 -2.91304 0.149709
        -0.126813 -1.34449 0.0702036
        -0.409637 -2.70399 0.0689733
        -0.126129 -0.986882 -0.148111