<?xml version="1.0" encoding="UTF-8" standalone="no" ?>
<VTKFile byte_order="LittleEndian" type="UnstructuredGrid" version="0.1">
  <UnstructuredGrid>
    <Piece NumberOfCells="0" NumberOfPoints="1764">
      <PointData>
        <DataArray Name="velocities" NumberOfComponents="3" format="ascii" type="Float32">
        -0.238989 -0.680345 -0.159663
        -0.486 -0.306996 -0.14862
        0.13566 -1.51801 0.194582
        0.341806 -0.41323 0.893531
        -1.34858 -1.56745 -0.873072
        -2.06154 -1.12986 0.915804
        0.918638 -0.947092 0.15081
        -0.206861 -1.94035 -1.03948
        -0.328204 -1.52229 0.305412
        0.357889 -1.48991 -0.0026193
        -0.933657 -0.451921 0.690129
        -1.59927 -1.51735 0.381726
        -0.0465296 -0.734057 0.303373
        -0.136834 -0.911806 -0.156446
        0.905581 -1.66714 -2.04703
        -0.47527 -3.62298 1.17925
        -0.777125 -1.58582 -0.315505
        0.383827 -0.959321 1.34892
        0.351589 -0.564404 -1.23776
        -0.496288 -2.81134 0.984946
        0.930674 -2.74688 -0.151301
        -0.549903 -0.642155 0.144828
        0.434115 -1.52767 -0.429646
        0.668175 -1.34925 0.00736439
        -1.29633 -1.64068 0.047956
        -0.119758 -1.08702 0.127747
        0.797841 -1.32438 -0.843186
        -1.00602 -1.62484 0.703965
        -0.897109 -2.83329 0.182343
        0.22889 -1.51979 -0.921095
        0.376033 -2.05903 -0.0648816
        0.0147599 -0.833396 -0.407282
        0.619971 -1.41658 -0.130461
        0.36396 -2.1002 0.256456
        1.03947 -0.587875 -0.705738
        0.272741 -0.738473 0.871071
        0.114928 -1.44723 0.363583
        0.148783 -0.368642 -0.301146
        -0.00195548 -1.75302 0.341334
        -0.0876462 -2.64049 0.458262
        0.620962 -1.63075 0.577784
        0.279687 -1.23429 0.937571
        -0.247079 0.0466299 0.403735
        -0.760045 -1.22061 0.169099
        -0.35667 -0.803601 0.533346
        -0.00148786 -1.85174 0.0181436
        1.6714 -1.61174 1.04933
        0.326784 -2.0493 -0.027599
        0.164729 -1.54658 -1.69396
        -0.811073 -0.829945 0.0334775
        0.333883 -1.5792 -0.376246
        -1.05247 -1.93423 -0.557583
        -0.130305 -2.40267 1.57778
        0.514422 -1.74102 0.418091
        -0.643908 -2.012 -0.0985899
        0.340743 0.178238 0.819781
        -0.99563 -0.590683 0.72619
        0.327473 -2.52985 0.176936
        -0.217932 -0.543656 -0.105227
        -0.0327288 -1.26355 -1.04609
        -0.973213 -0.572109 0.649609
        -0.740883 -1.15399 0.140023
        1.06711 -0.765057 0.397185
        -1.11932 -1.08325 -0.515648
        0.209833 -1.32163 -0.547946
        0.109102 -1.55677 0.30623
        0.0525705 -1.34142 -0.0882362
        -0.807315 -1.27939 0.291964
        0.0580023 -0.464064 0.724396
        0.496273 -0.956512 0.539849
        0.994341 -0.747972 -1.90194
        0.200667 -1.73187 -0.419448
        1.47877 -1.75327 -0.432746
        -0.820966 -0.138978 0.562711
        0.365234 -2.41686 0.255087
        -0.145926 -0.911494 0.24498
        -0.147115 -3.1697 -0.0488166
        -0.0992403 -0.974704 -0.174228
        0.393655 -0.88984 0.142829
        1.21323 -0.432587 0.403143
        -1.0825 -1.25748 -0.535069
        0.413428 0.000400593 -1.2457
        0.26868 -1.84857 0.389542
        0.911078 0.294047 -0.286952
        0.572057 -1.72171 -0.0967159
        0.50396 -1.53922 -0.123772
        0.321398 -0.383083 0.210129
        0.940341 -2.20587 -0.684791
        0.505795 -1.82183 0.852882
        0.17622 -1.89749 -0.370287
        0.120287 -1.86423 -0.271658
        -0.709379 -2.35035 0.676322
        -0.15966 -2.00866 0.286797
        -0.348143 -1.24249 0.695863
        -0.952258 -0.485478 0.637242
        0.999319 -1.51494 0.482589
        -0.907775 -2.40039 0.643239
        -1.3185 -1.16747 -1.34769
        -0.488985 -2.10312 -0.48469
        0.321816 -1.58533 -0.979868
        -1.32561 -1.08826 -0.044071
        -1.48174 -1.99789 0.487484
        0.215371 -0.417833 0.637802
        0.146622 -2.00955 -0.386959
        -0.347415 -1.0929 -0.489999
        0.0191929 -0.359362 -0.556148
        -0.094139 -1.8454 0.693485
        -0.336715 -0.889675 -0.415064
        0.536669 0.450074 0.139388
        -0.0868787 -0.349039 0.441096
        0.487197 -1.82259 -0.605954
        0.733428 -2.47065 -0.391906
        -0.943405 -2.10547 0.432256
        1.56975 -0.859071 -0.122136
        -0.00550417 -0.904326 0.332729
        -0.855764 -0.739984 -0.933978
        -0.176919 -2.32444 0.664368
        -0.188078 -1.39906 0.064408
        1.67153 -1.71243 0.234125
        0.379722 -1.48646 0.133796
        -0.302899 -1.36495 -0.956032
        0.60071 -2.03288 0.339328
        -0.475773 -1.78374 0.704615
        0.519514 -0.0641035 -1.03928
        -0.48034 -0.901922 -1.11127
        -0.954626 0.382066 -1.50118
        0.525391 -1.02402 -0.406073
        -1.3689 -1.62617 -1.01783
        -0.719133 -2.36434 -0.448926
        0.612968 -0.0965356 -0.0658976
        0.140482 -1.58837 0.335178
        -0.0892035 0.908102 -0.283927
        0.361202 -1.08043 -0.454458
        0.968093 -0.94123 -0.797214
        0.748522 -1.18676 -1.37449
        0.873118 -1.77439 -0.0853729
        -1.37454 -0.869762 0.683604
        -0.0475085 -0.642479 0.780112
        0.0871849 0.889974 -0.290473
        -0.321516 -1.20127 0.657672
        0.0377219 -0.923881 -0.356418
        -1.06474 -1.06838 -1.18102
        0.675618 -0.833279 -1.27697
        0.245224 -1.34392 0.659883
        -0.509266 -1.95595 0.0418415
        0.0833535 -1.37435 0.338504
        -0.384467 -0.50914 0.450622
        -0.984826 -0.755291 -0.45838
        -0.668386 -1.92619 -0.811601
        -0.341186 0.0453006 -0.780706
        -0.505183 0.0536104 -1.17357
        0.334205 0.307823 0.824508
        1.13345 -0.365733 0.881972
        -1.04834 -2.83849 -0.541341
        -1 -1.83077 0.199959
        1.26924 -1.04718 -0.833635
        0.0127099 -0.536596 -0.285888
        0.39534 0.049928 1.22227
        -1.28705 -0.272385 -1.53915
        -0.807451 -0.00512511 0.899041
        -0.438042 -0.241018 -0.311257
        -1.31894 0.444121 0.124641
        0.120433 0.211854 0.12649
        -0.412503 0.934719 1.39115
        0.726376 -2.07007 0.265921
        -0.208688 -0.632509 -0.829628
        -1.74214 -2.19065 -0.249927
        -0.953654 -0.765872 -0.454098
        -0.0998824 0.590954 -1.03979
        -1.27383 -0.504412 0.966796
        -0.812457 -0.976435 0.0452545
        -0.663051 -0.365745 -0.587345
        -0.0843658 -1.30335 1.11945
        -0.329408 1.12516 -0.774549
        0.210177 0.78006 0.246365
        1.36178 -1.27355 0.236522
        0.428257 -0.679658 0.547298
        -0.761014 1.07523 0.68565
        -0.545656 1.12442 0.730153
        0.0850797 0.552058 -0.71102
        0.769163 0.519535 0.859319
        0.418413 0.800086 0.895263
        -0.862766 0.40969 -0.206358
        -0.739943 2.67774 0.506237
        0.228942 0.601826 0.00182505
        0.151319 2.17055 0.144686
        0.187379 0.96544 -0.206063
        -0.620641 2.5739 -1.67554
        0.165362 -0.0532108 0.0949079
        -0.392898 -0.172122 0.202912
        -0.0356699 0.863844 -0.419859
        -1.76085 0.590413 0.90262
        -0.0539128 -0.619281 -0.0426153
        -0.25032 -0.612099 0.0416041
        0.615513 1.00787 0.427185
        -0.0548446 1.04188 0.285293
        -0.915613 0.99999 0.407971
        -0.585385 0.279731 0.530892
        -0.124796 1.20183 -0.236555
        -0.365092 1.01585 -0.420186
        -1.00857 0.348545 -0.236328
        -0.627964 0.770886 0.44883
        2.40674 1.36241 1.4529
        0.429482 0.645675 0.816442
        1.1796 3.01061 -0.571708
        0.314996 0.384124 0.0819461
        0.848253 0.986673 -0.881731
        0.548274 2.00007 0.873252
        0.162925 0.828993 -0.37558
        0.722272 2.28459 0.717459
        0.395639 0.01369 1.22756
        -1.45537 1.6413 -0.0976494
        0.841308 1.30512 -0.890619
        -0.0943746 0.757403 -0.252532
        2.09207 1.5189 -0.185738
        0.911518 2.75231 -0.608602
        0.198223 -0.238576 -0.156779
        -0.40883 1.58431 -0.378784
        -0.330547 1.81969 -0.451112
        -0.251568 2.29619 -0.948269
        -0.889905 1.42296 0.0715413
        -0.616858 1.38811 0.637225
        -0.103281 0.450254 -1.73271
        -1.79802 1.81124 0.0925765
        0.4541 1.47888 1.14775
        -0.221508 0.91594 -0.538845
        -0.0204414 0.510337 -0.752067
        -0.385201 1.86373 -0.224751
        -1.36219 1.40367 -1.07097
        -1.82854 0.99004 0.147731
        0.235022 2.38056 0.905567
        -0.595963 1.2852 0.176199
        -0.785811 1.40147 0.0393795
        -1.04259 0.342401 0.657254
        0.241414 3.64221 0.662747
        -0.92821 1.66188 -0.385428
        0.761642 0.738008 -0.0987905
        -1.03772 0.453001 -0.948635
        0.313595 1.90811 -0.821497
        1.45601 1.97303 -0.0427487
        -0.173187 1.0224 0.837714
        -1.21155 1.6296 -1.03233
        -0.397905 0.947991 0.524751
        -1.05435 2.49192 -0.286338
        1.26512 0.273897 -1.36006
        0.461942 1.7912 -0.0375896
        1.76335 2.66627 -0.010644
        -0.0494877 1.17016 0.599864
        -0.255507 2.69077 3.42151e-05
        -0.654578 1.06331 0.45519
        0.198145 0.808393 0.786788
        -0.773725 2.03467 0.550369
        0.0831565 1.44708 -0.33941
        -0.965479 0.511208 0.395556
        -0.149739 2.72133 1.1749
        -0.577407 1.35 0.857508
        -0.196173 0.620099 0.175271
        0.0147199 1.92661 -0.696504
        -0.997068 1.48105 -1.00396
        -0.828391 2.28492 1.13301
        -1.0863 2.14882 -0.0949466
        0.0999806 0.981608 -0.266726
        -0.254906 1.55924 -0.630922
        -0.41832 2.41191 -0.0570352
        -0.570102 -0.0143162 -0.640085
        -0.83088 1.22424 -0.0895043
        -0.117843 1.49441 -0.0990595
        -0.407778 1.54877 0.15989
        -0.284726 1.64406 1.56294
        -1.58765 0.987331 0.355466
        -0.616888 1.0228 -0.0966262
        -0.265226 2.09775 0.690374
        0.502633 1.43398 -0.634122
        -0.545161 0.380574 0.282021
        0.409868 0.641995 -0.279935
        -0.238217 2.07971 0.193284
        0.869418 0.73397 0.00821103
        0.0544084 3.06355 0.179882
        -0.733953 1.18913 -0.766987
        -0.184545 1.12732 -1.24501
        0.574219 1.96883 0.949373
        -0.967875 1.81666 0.733747
        -0.622824 1.32617 -0.514848
        1.07815 1.83026 -0.63968
        -0.054017 0.220532 0.498391
        0.968951 1.04871 1.02188
        -0.916298 1.69879 -0.110499
        -0.890433 -0.349042 0.0316663
        -0.451017 1.0423 7.92885e-05
        -0.463198 0.840043 1.27566
        -0.106748 1.88253 0.664649
        -0.608482 1.24808 1.43592
        0.591272 1.03048 0.922284
        -0.0550313 0.174498 0.679149
        -1.09261 2.04577 0.545123
        -1.02644 1.65868 0.513264
        -0.411931 0.338165 0.421357
        0.900606 1.49439 -0.414883
        -0.172797 1.15241 0.0358418
        0.433712 1.38209 0.217504
        -0.0888278 0.934091 -0.592771
        -0.967376 2.02831 -0.570768
        0.550587 1.16381 -0.733843
        -0.895181 1.99782 -0.984775
        -0.73805 2.32537 0.253143
        0.602956 0.979462 -0.0038143
        0.269233 0.68295 0.752962
        -0.256218 2.11002 0.00304723
        -0.14972 1.47001 0.621833
        0.75483 1.07177 0.40042
        -0.354138 1.69214 -0.884111
        -0.305922 2.43367 -0.0256499
        0.484324 0.232776 0.132445
        1.45446 2.2036 -0.457277
        -0.461081 1.01862 0.517899
        -0.00038325 1.11767 -0.671071
        -0.146585 1.07483 -0.11901
        0.338855 1.04349 2.01947
        -0.29239 1.97066 -1.28775
        -0.139872 1.4952 -0.0832449
        0.181231 1.52907 -0.174771
        -0.462213 0.792684 -0.287214
        -0.347183 1.30838 -0.428686
        -0.900323 1.2664 0.988448
        -0.381513 0.734512 -0.549992
        0.690173 0.71647 -0.0767281
        0.0914443 1.46586 0.0154296
        -1.08842 1.71542 -0.429356
        0.591332 0.651307 -0.466694
        0.188562 1.80648 0.48374
        0.215636 1.9512 0.159852
        0.0491361 1.78431 -0.284347
        1.30073 1.37809 0.161291
        0.558597 2.12738 -0.480484
        0.0794125 1.40614 -0.0390607
        0.390895 0.604707 1.06993
        0.629686 1.69222 -0.244766
        0.935145 2.62353 -0.308348
        0.716431 3.00988 0.28636
        -0.67294 0.580399 0.113113
        0.391731 0.401423 0.827
        0.0350125 0.971803 -0.611707
        0.802391 1.04119 0.576507
        -1.00567 0.729581 -1.21725
        0.357415 1.93026 1.48307
        0.0226943 0.101944 0.12754
        1.06605 0.503492 -0.0720974
        -0.406939 0.33789 -0.0573308
        0.54852 1.33065 0.393045
        0.646778 0.975404 1.46441
        -0.285647 0.926045 0.327753
        -0.346045 1.07601 0.0718092
        -0.0870419 1.39539 0.497526
        -0.38743 1.98251 -0.635866
        0.724543 1.97369 0.944421
        0.293263 1.19847 -0.033745
        -0.705231 0.149326 0.877098
        -0.583669 0.984358 0.174314
        -0.110706 0.617315 0.0164676
        -0.107842 2.46899 0.276392
        0.668702 1.64675 0.471087
        -1.1242 1.64539 -0.114002
        -0.928248 1.0199 0.649544
        0.72034 1.52105 0.804304
        -0.600479 1.56006 -0.794137
        -0.280939 -1.74583 -0.258251
        -0.0105942 -0.601657 0.115112
        0.00168946 -1.85598 -0.411066
        0.205719 -1.35295 -0.474823
        -0.0352404 -1.00642 -0.338488
        -0.200192 -1.7594 -1.11677
        -1.2783 -1.80735 0.814233
        0.308064 -1.42342 0.597379
        0.252368 -1.61388 -0.0255514
        0.0651649 -1.27681 0.962981
        -0.789957 -2.14498 -0.333532
        1.41834 -0.544381 -0.91204
        -0.276882 -2.2057 -0.461029
        0.404473 -2.58786 -0.0972074
        1.05529 -1.5287 0.266417
        -0.417714 -1.71178 0.165101
        -0.779159 -2.37005 0.332253
        2.21743 -0.346066 -0.912816
        0.625401 -0.216654 0.235115
        -0.0876208 -2.10295 -1.38834
        0.590552 -0.693518 -0.550781
        -0.266164 -1.85365 -0.526393
        1.0317 -2.38596 0.390069
        -0.176997 -1.72786 -0.235244
        0.123032 -1.9176 0.571769
        0.945708 -1.84676 -0.297758
        -0.187335 -2.05993 -0.500661
        -1.06659 -1.8137 -0.649206
        0.844293 -2.59878 0.457774
        -0.752593 -2.71916 0.104032
        0.76917 -1.0776 0.50657
        0.127548 -0.66944 0.231773
        0.25211 0.513437 0.896838
        0.716173 -2.74578 -0.0464937
        0.944421 -0.532717 1.33668
        0.50775 0.294413 -0.147289
        0.968786 -0.502704 -0.702853
        0.474389 -1.79276 -0.549619
        -0.381443 -2.65888 0.813243
        -0.145727 -0.324432 -0.314755
        -0.984095 -1.15546 0.649196
        0.55576 -1.55547 -0.0438396
        -0.295062 -1.00614 -0.0155463
        0.486314 -0.874884 0.573128
        0.707249 -0.640841 0.097233
        0.0569087 -1.392 1.13761
        -0.194966 -1.20373 1.42562
        0.177309 -2.28979 -0.121144
        0.162307 -2.12185 -0.175454
        -0.193371 -2.68726 0.440909
        -0.665158 -1.51382 0.0652904
        -0.580729 -1.94746 0.132817
        0.366255 -1.40041 -0.388217
        -0.446459 -2.64752 -0.453512
        0.078056 -0.105354 -0.517463
        0.256525 -1.43977 0.563555
        -0.47954 -1.26882 0.185682
        -0.657701 -1.34658 0.472456
        -0.609917 -1.72188 -0.162877
        -0.46047 -1.46787 0.22075
        0.900559 -0.616691 1.09001
        0.982079 -0.712061 -1.22017
        -0.381011 -1.62441 0.0797905
        -1.10956 -0.287425 -0.595358
        -1.6189 -1.54425 0.680964
        -0.235051 -2.06407 -0.72572
        0.402774 -0.964724 0.440722
        -1.16024 -1.36936 -0.393096
        0.219514 -0.0176177 0.00973823
        -0.278085 -0.0124537 0.859478
        -0.334354 -2.05437 -0.299797
        0.508262 -2.02103 0.355973
        0.347541 -1.36136 1.05427
        -0.825671 -0.671479 0.426233
        -0.920911 -1.46375 -0.427636
        -0.359799 -2.09609 -1.60348
        -0.939533 -1.11925 -0.462951
        -0.160059 -1.23472 1.06746
        0.559981 -1.92601 0.0479659
        0.996866 0.216732 0.621616
        -1.08985 -0.522287 0.826731
        -1.11723 -0.387954 -0.37265
        0.781718 -0.675248 -0.891402
        0.911834 -1.52046 -0.996937
        0.829395 -1.16133 -0.774114
        0.43181 -1.10389 0.0960852
        0.0301666 -1.54049 0.272394
        1.49266 -0.510725 -0.708535
        0.234053 -2.24233 0.469123
        -0.458263 -2.16265 -0.279662
        0.22474 -0.915127 -0.547345
        1.14175 -1.82457 -0.0567948
        -0.754485 -0.944395 1.9309
        0.849381 -0.305556 1.13004
        0.272296 -1.40071 -0.507119
        -0.298769 -2.20169 1.2923
        0.523948 -1.05508 -0.159317
        -0.259269 -0.287288 1.22046
        -1.46093 -1.84219 0.567272
        -1.64832 -1.28128 -1.1378
        -1.45384 0.174693 -0.0969531
        -1.19226 -0.765353 -1.31962
        -0.618192 -0.859929 0.253064
        -0.624989 -1.07118 -1.6032
        0.0997315 -0.830454 0.825474
        0.520378 -1.42874 1.26942
        0.490251 -2.32631 1.1234
        -0.227921 -1.23146 0.253497
        0.486024 -0.276684 0.578574
        0.120199 -1.00605 0.577355
        -0.653809 -1.4747 -0.603659
        0.107997 0.225922 -1.34913
        0.563917 -0.75959 -0.153095
        -0.236664 -2.20717 0.832324
        -0.469962 -1.92148 0.065106
        0.25728 -1.55261 -0.827216
        -0.503475 -2.1238 -0.942156
        0.300592 -0.694816 0.684457
        0.518783 -0.288492 -1.00176
        -0.205724 -0.979528 0.468541
        0.838545 -0.524866 0.746865
        -0.92275 -0.789214 1.00012
        0.226391 -1.66927 -0.295802
        -0.0778296 -1.57217 -0.819951
        -0.261521 -1.50992 0.879496
        -0.286201 -1.71542 -0.151675
        -1.4109 -0.324473 0.807474
        -0.61348 -1.21535 -2.47601
        0.0417194 -0.533998 -0.41031
        0.65974 -0.4387 0.484177
        0.56739 -1.71378 -0.256182
        -0.421595 -1.28751 0.132264
        1.15082 -1.34571 -0.826618
        -0.290089 -2.36128 -0.168087
        -0.615544 -1.84639 0.0805942
        -0.23731 -1.61128 1.28624
        0.320259 -1.49033 0.160197
        -0.549001 -2.4176 0.963114
        -0.172137 -1.70179 0.740058
        -0.824045 -2.53792 0.11959
        0.576067 -0.66389 0.511865
        -0.81722 0.64656 0.189777
        1.38942 -1.75059 0.341211
        0.43042 -0.917381 0.569429
        0.381911 -1.49568 0.302803
        -0.798323 -2.08437 0.506406
        0.38389 -0.692656 -0.908471
        -0.882296 -1.94139 -0.370453
        0.918828 -1.01714 2.37686
        0.205886 -1.24616 0.734139
        -0.139656 -0.953437 -0.0449357
        0.640964 -1.97009 1.58556
        -0.240403 -0.196509 -0.214103
        -0.456892 -2.69274 0.709817
        0.452418 -1.79307 -0.289297
        -0.139795 -0.64709 -1.8519
        -0.928733 -1.94002 0.764236
        -0.198825 -0.67066 0.201766
        0.853655 -1.55307 -1.64354
        -0.557735 -1.40435 -1.68121
        0.612554 -1.02097 -0.727252
        1.09238 -1.05742 0.612579
        -0.340724 -1.66404 1.04682
        -0.0882519 -0.656161 -0.442675
        0.0323926 -1.74526 0.0417681
        0.00629309 0.0165015 0.260381
        0.562877 -1.50993 -0.495441
        -0.880474 -0.243449 0.0849456
        0.151849 -0.734558 -1.61653
        -1.46917 -1.03016 -0.81362
        -1.09126 -0.728827 -0.45692
        -0.904871 -1.82651 0.479683
        0.764571 -1.61571 1.0705
        -0.323819 -0.572251 1.44146
        -1.24861 -1.05357 -0.796362
        -0.883804 0.081987 1.58882
        -0.331068 -1.97795 -0.427026
        0.711827 -1.43262 -0.296298
        -0.596151 -0.858871 -0.275023
        1.55747 -1.14221 0.556479
        0.740753 -1.44644 -0.126684
        1.2706 -1.42437 -0.885459
        1.03194 -2.36862 0.541346
        -1.07519 -1.13785 -0.272536
        -0.390058 -1.00138 -0.400183
        0.224197 -0.543389 0.970355
        0.28754 -1.38079 -0.513629
        1.05453 -2.56532 -1.15905
        -1.02304 -1.16946 -0.417425
        0.358654 -0.433316 1.43259
        -0.106527 -0.832104 0.584971
        2.19083 -0.431936 -0.456671
        0.863665 -0.442814 0.105777
        -0.174855 -0.249595 -0.0969866
        -1.11901 -2.54849 0.411103
        1.58565 -1.0212 -0.501296
        -1.05497 1.20424 -1.05949
        -0.0805856 -0.732243 0.422648
        0.989714 -0.157251 0.499806
        1.19088 -2.85067 -0.952318
        -0.917807 -1.16983 0.247552
        0.373627 0.171377 0.116801
        -0.356451 -1.10091 -0.133707
        -0.676172 -1.01995 0.737015
        1.32188 -0.743297 1.20339
        -1.90747 -1.51251 0.273393
        0.723636 0.370819 0.93249
        0.013156 0.0716714 -0.854744
        -0.11152 -0.762493 -0.949477
        0.210578 -1.32552 0.334942
        1.24642 -0.276951 -0.938826
        0.13309 0.189877 1.01979
        -1.04944 -1.48676 0.418058
        0.610955 -0.7735 0.633594
        0.554912 1.3706 -1.0418
        0.810614 1.31143 -0.262044
        0.0563706 0.953817 1.17277
        0.531719 0.424007 -0.0546151
        0.556187 -0.489309 1.10898
        0.280951 0.288322 0.859528
        -0.0435249 -0.0584012 -0.0313787
        0.600928 0.955977 1.48744
        0.82351 0.18002 0.857989
        0.342746 0.875473 -1.01982
        0.580391 0.254379 -0.8297
        -0.667206 1.16342 -0.609418
        0.234132 1.76855 -0.072283
        0.321824 0.0251425 -0.228566
        -0.929223 0.501584 -0.412462
        0.153371 1.48866 -0.11681
        -0.526867 0.918922 0.677286
        0.272662 1.30959 0.346444
        -0.501147 1.73482 0.136063
        0.236069 0.472992 0.799804
        -0.888468 0.441722 0.307986
        0.153301 2.43092 1.1438
        -0.365888 0.945339 0.0225029
        -0.509509 1.58193 1.22831
        -0.12483 0.944468 -0.253742
        1.14099 1.25428 -1.06307
        0.378699 0.984622 1.38069
        0.777958 0.643224 0.0103734
        0.273503 0.431628 0.288551
        0.133877 0.493465 -0.384905
        0.605096 0.862715 0.770219
        -1.40116 1.11911 0.11003
        0.656444 0.812177 -0.686187
        -0.58669 1.57405 0.0349909
        -0.849962 2.40738 -0.554611
        0.813757 1.02604 -0.131611
        0.520855 -1.15936 -0.187639
        -1.01972 1.49291 0.491444
        0.638106 2.33324 -0.400243
        0.184068 2.05255 -0.7508
        0.454022 0.346022 -1.39525
        0.575445 1.7632 0.706408
        0.26262 1.83755 -0.439372
        0.278808 1.82778 0.192049
        0.761361 1.88429 0.474596
        0.526583 2.08889 -0.272091
        0.466055 1.60195 -1.03319
        -1.17786 0.827352 -0.364961
        1.44259 1.96552 -1.43536
        0.993217 1.76095 -0.611139
        -0.829396 2.12463 0.432724
        0.0158499 0.693014 -0.0769249
        1.0217 1.59587 2.0812
        -0.480726 1.25882 0.441774
        -0.318104 2.92815 0.448906
        -0.835512 1.37022 -0.601983
        0.110753 1.71346 0.222241
        -0.833555 1.47795 1.37914
        0.266872 2.14362 0.278095
        0.540554 1.94653 -0.945935
        -0.208386 1.38434 0.0608331
        -1.1859 1.28189 1.39219
        -0.260005 1.75597 1.3625
        0.066262 1.81984 0.699724
        0.46502 0.410916 0.270699
        0.0832265 2.78894 -1.01278
        -0.172191 0.584476 0.41992
        -0.987129 2.18068 1.23869
        0.706398 1.32628 -0.159042
        0.464838 1.63677 0.884081
        0.691435 1.66527 0.530253
        0.862454 1.35637 0.502508
        0.0192848 1.33095 -0.737317
        0.203926 2.25934 0.736871
        -0.510475 1.14396 -1.64332
        -0.514628 1.30257 -0.569073
        -1.10993 2.02111 -0.10354
        0.507207 1.53285 -0.00428616
        0.338865 1.85144 0.877756
        -0.507437 1.5441 -0.0194052
        -0.35774 1.70993 0.0728149
        1.33997 2.02974 0.223933
        -0.381654 1.56395 -0.664883
        0.0568379 2.43476 0.223099
        -0.555218 0.593554 -0.0157211
        0.172076 -0.73709 -0.0206998
        -1.46292 1.88649 -0.0504578
        -0.728702 1.90126 1.47794
        -0.818233 3.23788 -0.604642
        -0.421959 1.3977 0.415813
        -0.000548542 1.98985 0.588259
        0.619609 1.61314 -1.12548
        -0.164132 0.460746 -1.02149
        0.161883 0.873995 0.0958788
        -1.21768 0.484849 -0.73696
        -0.50286 1.73405 0.0422606
        -0.569838 1.68967 0.436226
        -0.0436203 1.33941 0.895121
        -0.476666 0.756277 -0.274165
        1.28307 1.97016 0.280817
        0.526224 -1.09798 -0.635567
        -0.194225 1.44045 -0.449333
        -0.00730203 0.788337 -0.265116
        -0.305024 1.96611 -1.43549
        0.128096 1.30716 -0.639127
        0.0400722 1.95639 0.313391
        -0.280862 3.34445 -0.503953
        -0.656523 1.19624 0.695144
        -1.18805 0.490442 0.346014
        -0.44788 0.419786 0.475646
        0.519098 2.3702 -0.1041
        -0.497454 1.6113 -0.844253
        0.157498 0.305499 0.223116
        -0.48993 1.34089 0.648349
        0.905544 0.495208 0.35131
        -0.566141 0.865532 -0.707963
        -0.196623 1.74807 1.92037
        -0.938329 2.61561 -0.956654
        -1.08751 0.240524 -1.03888
        -0.320158 2.10908 -0.134058
        0.141809 1.1691 0.0934444
        -0.747445 1.89506 -0.099486
        -0.0898933 1.85674 -0.752899
        0.688594 1.61716 0.159499
        -0.434777 0.680244 -0.591039
        -1.32336 1.40222 0.681893
        0.280444 1.77055 -0.824071
        -0.158997 0.823084 0.566286
        0.859631 0.673003 -1.00604
        -0.617057 1.69675 0.27988
        0.819484 1.25806 1.20565
        0.153614 0.942599 0.022722
        -0.233257 0.734592 0.251601
        -0.419449 1.44596 0.222952
        0.0902064 2.44174 0.761183
        0.394007 1.51022 0.0380503
        -1.30455 1.2811 0.929663
        -0.300592 1.87933 0.0987673
        0.126624 1.44405 -0.48042
        0.0043774 1.4204 -0.492541
        0.114037 1.67017 -0.84723
        -0.502111 2.77572 0.772717
        -0.619882 1.10863 0.070392
        -1.28663 1.23894 0.482837
        0.684304 0.995546 -1.13486
        0.418621 1.26921 -0.88644
        0.447573 1.21898 0.617054
        0.41847 1.97819 -0.377933
        0.435585 1.43079 0.294052
        -0.36007 2.45459 -0.850767
        -0.988085 1.00494 -1.58984
        0.173394 0.585599 -0.252049
        0.0557987 1.7715 0.524902
        0.0609689 0.962931 1.0414
        0.141755 1.22525 -0.894275
        1.28196 -0.0431739 -0.0485154
        -1.72696 -2.02434 -0.226201
        1.66734 -2.30427 -0.0564581
        -0.653288 -1.61603 -0.196129
        0.476666 -0.756277 0.274165
        -0.510689 -0.792225 0.875351
        -0.608314 -1.33107 -0.430259
        -0.96582 -1.82403 -1.59315
        -0.194892 -1.53709 0.419034
        -0.616886 -1.21229 0.0671823
        0.323882 -0.924295 0.121912
        0.175792 -1.20019 0.249589
        -0.350117 -1.20175 -0.782278
        0.981349 -2.41192 0.0677516
        -1.06517 -1.72943 -0.274376
        -0.40559 -0.622118 -0.778361
        -1.39899 -1.11947 0.124969
        0.126058 -1.36562 0.831383
        0.947872 -0.757371 0.410364
        -0.508832 -1.00456 -0.0295067
        -0.70759 -0.943596 0.248616
        0.157764 -0.00610876 0.350875
        1.14567 -2.11419 0.222739
        0.353944 -1.28546 0.875258
        -0.669185 -0.861714 0.611348
        -0.267589 -1.04623 0.296867
        -0.0515077 -2.2795 -1.12519
        0.884017 -0.771834 -0.483078
        0.958449 -0.460586 0.452192
        0.265476 -0.351283 -0.0469593
        0.329912 -0.376081 0.0839084
        0.408503 -0.919553 0.948421
        -0.394007 -1.51022 -0.0380511
        0.814697 -1.01061 -0.0346122
        0.151393 -1.40021 -0.826219
        -0.120168 -0.516012 -0.304376
        -0.373926 -1.2165 -0.350205
        0.59874 -0.901556 -0.340694
        -0.343962 -1.06587 0.48893
        -0.980857 0.309116 0.865201
        1.09828 -1.98572 0.723132
        0.64257 -2.02629 -1.11391
        0.333332 -0.812821 0.172149
        -0.224174 -1.09347 0.418786
        1.27506 -0.516378 0.998634
        -1.45631 -0.339139 0.693491
        0.90976 -0.0091971 1.14707
        -0.191235 -2.103 -0.262726
        0.727169 -1.9895 -0.126623
        -0.0286769 -0.593814 0.0135806
        1.50971 -1.04718 -0.4765
        -0.441151 -0.415096 0.0313159
        0.481732 -0.492406 0.243961
        -0.507844 -0.192603 1.41105
        0.31277 -1.89219 -0.297976
        0.241066 -1.43354 -0.040919
        0.955737 -1.73956 -1.40538
        0.358796 -1.69162 0.540307
        0.745589 -2.12532 0.0145607
        -0.00174788 -1.80911 -0.240901
        2.09641 -1.46807 -1.47714
        0.575148 -1.29188 -0.186234
        0.510474 -1.14396 1.64332
        -0.210478 -1.48519 0.664869
        0.908419 -1.18113 0.570222
        0.954623 -1.58196 1.19269
        -0.89649 -1.70104 0.147669
        0.253606 -1.67638 0.0220891
        -0.457918 -1.3778 0.406993
        0.467478 -0.835845 0.168864
        -0.044635 -1.04379 -0.65811
        1.00101 -1.40194 -0.594403
        -0.256887 -2.11419 0.0651811
        -0.533279 -1.25592 -0.519971
        0.363716 -0.342385 -0.516566
        0.61252 -1.38399 -0.265574
        -0.175072 -0.786718 0.590896
        -0.975564 -0.88599 -0.386264
        -0.570216 -1.58372 -0.0913516
        -0.0222306 -0.141498 -0.382094
        -0.00209891 -1.48993 -0.451513
        -0.684459 -1.54475 -0.735921
        0.493807 -0.316841 -0.620751
        0.0151961 -0.568197 -0.332482
        1.12873 -1.84885 1.4601
        -0.478024 -1.23424 -0.993356
        -0.135272 -1.35773 0.277783
        0.221071 -1.834 -1.36456
        0.78928 -1.6776 -0.304937
        -0.500228 -0.896814 0.397333
        -1.2856 -1.24508 -0.999057
        0.293196 -1.19634 1.41591
        -0.48541 -2.28058 0.923981
        0.580158 -0.460313 -0.277102
        -0.501813 -1.87915 1.62989
        1.07852 -1.99826 0.783982
        -0.0130474 -0.529168 -0.103284
        0.904893 -1.14628 0.47351
        -0.340903 -1.92955 -0.313842
        0.192943 -0.812686 0.91707