<?xml version="1.0" encoding="UTF-8" standalone="no" ?>
<VTKFile byte_order="LittleEndian" type="UnstructuredGrid" version="0.1">
  <UnstructuredGrid>
    <Piece NumberOfCells="0" NumberOfPoints="1764">
      <PointData>
        <DataArray Name="velocities" NumberOfComponents="3" format="ascii" type="Float32">
        -0.751114 -0.823264 0.264415
        -0.431287 -0.858757 -0.0491821
        0.550233 -1.50327 -0.475978
        0.530304 -0.74454 0.343715
        0.287208 -1.45972 0.232739
        -0.457022 -0.686758 -0.1676
        0.964775 -1.11343 -0.969795
        0.05689 -0.977069 -1.12408
        -0.384645 -1.41809 -0.10655
        0.202441 -1.57559 0.427237
        0.612553 -1.29683 -0.104444
        0.142525 -1.49935 0.135494
        0.614126 -0.515084 -0.125027
        -0.595908 -1.40401 -0.746315
        0.424152 -2.03664 -0.0490212
        0.528827 -0.118042 -0.231451
        -0.523646 -2.26101 0.0142178
        0.378901 0.0364694 -1.31051
        0.765333 -1.90229 -0.853112
        -0.524493 -2.57927 -0.510508
        -0.510306 -0.996125 -0.290052
        -0.953143 -1.1965 0.0600601
        1.66414 -0.163969 -0.47159
        0.339387 0.116032 -0.366809
        0.899391 -1.4701 1.13329
        1.08656 -1.9934 -0.57031
        0.866065 -2.54797 0.287277
        0.339849 -1.36597 0.0587137
        -0.180951 -1.24327 0.498354
        -0.0886103 -0.0544016 0.318088
        -0.932094 -1.18951 -0.886666
        -0.236077 -1.64755 0.176735
        0.61262 -1.75127 0.645334
        -0.0340798 -1.34715 1.1886
        0.334837 -1.82176 -0.0885872
        0.99482 -1.61879 -0.486092
        -0.729258 -1.33943 1.73635
        1.00679 -0.950314 -0.239164
        0.82451 -2.2536 -0.67701
        1.38022 -2.44684 0.984737
        -0.884549 -2.04312 -0.462388
        0.871436 -1.96782 -1.1636
        0.310226 -0.810275 0.841293
        -0.543764 -1.66303 0.774944
        0.736861 -2.57746 -0.977895
        -0.384248 -0.589912 -0.534358
        0.659467 -0.81978 -0.647473
        -1.99769 -2.57814 0.0430662
        0.0585191 -2.33306 0.0714789
        -0.39743 -1.47695 0.477251
        -0.506726 -0.610397 0.0242493
        -0.118906 -1.69372 -0.319298
        -0.522484 -1.07525 1.70714
        -1.56404 -2.33267 0.702456
        -0.410811 -0.149458 0.397219
        1.57335 -1.979 1.65973
        0.628744 -1.01855 -1.85263
        0.395623 -0.724889 -0.612912
        -0.9681 -1.32219 0.568716
        1.14543 -0.697619 1.16742
        1.03332 -0.340147 0.524611
        -0.0848699 -0.956195 0.375154
        -0.751977 -0.529176 -0.497284
        0.685318 -2.00617 -0.446021
        0.257587 -1.96421 0.349063
        -0.231285 -2.46365 -1.40337
        -0.214865 -1.49564 1.15414
        -0.718299 -0.454708 -1.20284
        -0.274473 -1.46472 -0.146871
        -0.760312 -1.62516 -0.382833
        -1.35583 -2.19083 -0.0181835
        0.130201 -1.26144 -0.0394162
        0.187713 -1.91193 0.785537
        0.714175 -1.23332 0.133115
        -0.37827 -1.55505 -1.28737
        -0.521642 -0.660126 -0.261257
        1.54522 -0.348354 0.28645
        -0.0470719 -2.01179 -0.00805519
        1.08522 -0.359857 0.384751
        0.982638 -0.535218 -0.584872
        0.00540205 -0.228353 0.196244
        0.316485 -3.16774 -0.684679
        0.985216 -1.522 0.0059012
        -0.341715 -2.55047 0.299809
        0.401179 -1.72515 0.45925
        0.00449832 -0.842678 1.133
        0.549092 -0.509214 0.322457
        -0.703831 -0.651951 0.00774022
        0.71387 -2.1026 -0.597981
        -0.554361 -1.33811 0.648379
        0.678906 -1.8103 0.119499
        0.229822 -0.506687 -1.11021
        0.134244 -1.07874 -2.00517
        -0.695829 -1.49119 -0.184183
        1.12562 -0.438225 0.431006
        0.0369367 -2.08127 0.605661
        -1.36676 -2.10399 -0.209496
        -0.133842 -1.65462 -0.716824
        0.224997 -1.10758 0.954642
        0.642313 -0.274416 0.260103
        -0.571472 -1.35943 -1.17376
        0.297435 -0.749876 0.0262795
        0.333983 -0.82231 -0.50104
        -1.02627 -1.50142 -0.88343
        -1.0793 -1.10518 0.449947
        -0.418054 -1.24626 -0.283843
        1.33215 -2.22823 0.363889
        0.403566 -1.31827 0.0140787
        0.558672 -1.81571 1.92433
        0.225579 -2.64601 0.542179
        -1.01198 -0.893663 -0.889433
        -1.95216 -1.70752 0.429853
        -0.843483 -0.876764 -0.317686
        0.256055 -0.242852 1.10382
        0.840572 -0.0930183 -0.251608
        -0.635679 -1.60153 -1.67108
        0.959899 -1.4602 -0.0497456
        -0.60099 -0.308059 0.976844
        -0.180173 -0.55332 0.881458
        0.758455 -0.675138 0.884058
        -0.587263 -0.736377 -0.835699
        0.12776 -0.577923 0.830179
        0.130516 -0.780249 1.15048
        -0.0930634 -1.88301 0.735845
        -1.15891 -1.96698 0.790274
        -0.586249 -2.22798 0.00954262
        0.313172 -0.106086 0.481437
        -0.618916 -2.12166 -0.61224
        0.420803 -2.74546 -1.28128
        0.292988 -1.26887 -1.31784
        -0.833899 -1.5382 0.0471826
        0.582575 -0.983058 0.743755
        -0.493517 -0.0297465 0.70189
        0.0246503 -0.485165 0.228113
        0.224908 -2.33339 1.15301
        -0.698542 -2.80182 0.121003
        0.332221 0.376462 0.442414
        -0.497768 0.937472 -0.170801
        0.138742 -0.561158 0.510995
        0.318672 -1.76284 -0.9161
        0.073142 -1.04973 1.16382
        0.135733 -0.360535 -0.362612
        -1.0022 -1.49263 0.245434
        -0.80846 -2.9299 0.501934
        0.203789 -2.19189 -1.32018
        0.246012 -1.50801 -0.23267
        0.194565 -1.85782 -0.576492
        -0.391991 -1.64021 0.656702
        1.18577 -1.10409 0.366836
        -0.714058 -1.93436 0.389075
        0.546146 -1.15654 0.335401
        0.72409 -0.758255 -0.443676
        0.325506 -1.51433 -0.357685
        -0.299228 -1.30328 0.297596
        -0.834575 -1.41236 0.392603
        -0.110476 -0.0650556 -0.706323
        -0.400203 -0.674834 0.057261
        -1.1957 -1.7732 0.680495
        0.774628 -1.25462 -0.0528043
        -1.05072 -1.99693 1.06559
        0.692546 -1.32155 0.562546
        0.422094 -0.627904 0.283333
        -0.862332 -0.870582 -0.0579235
        -0.391281 -0.195621 -0.439787
        -1.32766 -0.991917 -1.16206
        0.151936 -1.36325 0.199457
        0.777946 0.277894 -0.687662
        0.23115 -1.49587 0.30019
        -0.850402 -1.5693 0.911373
        0.114771 -1.28991 -0.0883413
        0.519991 -0.570672 -0.964849
        -0.75833 -0.299394 -0.465256
        -0.402739 -0.432847 0.524663
        0.346687 -2.37321 0.531778
        -0.702639 -1.01965 0.893348
        1.04988 0.0766267 -1.32492
        -0.775831 -0.656787 0.499404
        -0.708955 -1.68281 0.0986071
        -0.0555427 -0.975109 0.146245
        -0.7081 -0.849716 -0.599921
        -0.44727 -2.38814 1.52512
        0.621884 -1.4154 -0.719335
        0.256347 -1.68278 -0.741704
        0.248931 -0.433822 -1.26697
        1.87559 0.275852 -0.571541
        0.784758 -0.321771 -0.100399
        -0.207465 0.665209 0.869695
        -0.0892362 0.780117 -0.35474
        0.532829 0.204217 -0.109533
        -1.0328 0.109286 0.550077
        1.13381 0.316902 0.175601
        -0.204755 1.40896 0.584682
        0.845513 0.36477 -0.232497
        0.122115 0.0644931 -0.101772
        -1.71357 1.26772 1.07875
        0.658102 -0.327559 -0.475598
        0.276434 -0.366208 -0.974156
        1.51563 1.87182 0.503491
        -0.575394 1.48798 -0.282213
        0.88778 1.19978 -0.30723
        -0.50429 0.797312 -0.857824
        1.55883 1.24626 0.199953
        -0.61984 1.7392 -0.278421
        -0.230845 0.945398 -0.472855
        0.951602 1.1878 -1.07086
        1.15668 1.54557 0.246382
        -0.471272 1.06925 0.125108
        -0.19087 1.08882 -0.531486
        -0.181211 1.92182 -0.589107
        0.107208 0.804923 -0.31195
        0.164296 0.608319 -0.581303
        0.845261 0.040688 -0.797829
        0.252307 0.957427 0.705376
        -0.437801 1.22354 -0.713306
        -0.575718 0.399335 -0.709099
        -0.28508 1.5444 -0.732746
        0.955943 1.08527 0.233713
        0.344706 0.474313 0.137608
        0.884162 0.536298 -0.756283
        -0.454703 1.99781 -0.601128
        0.346743 2.45586 -1.36882
        0.681866 1.21909 -0.380497
        -0.546091 2.31419 0.611183
        -0.125795 0.347357 -0.687749
        -0.92103 1.08285 0.269678
        -0.22635 1.30109 -0.867095
        0.0754874 0.498116 -0.85809
        0.533859 1.84293 0.66776
        0.139188 1.55966 0.702463
        0.281043 1.59375 -0.0181036
        -0.585267 1.29381 1.17224
        0.164563 1.25235 -0.37937
        0.050082 0.660177 -0.0576703
        -0.558089 0.840088 -0.759651
        -0.839492 2.67784 0.568684
        0.993383 1.12485 0.517412
        0.154337 0.31998 -0.543585
        -0.0308749 1.57213 0.12444
        -0.103811 1.28546 1.88624
        0.500078 0.946287 -0.00428507
        0.695913 0.0218271 -1.03884
        0.444357 1.20252 -0.778045
        0.390187 2.53838 -0.217485
        0.133008 1.61399 0.0489707
        0.10957 2.1536 0.176278
        1.67967 1.76456 -0.0946746
        -0.547294 1.06957 0.82523
        0.253783 0.99272 -0.836562
        0.827577 1.10775 -1.26943
        -0.812186 -0.266501 1.32976
        0.691291 1.55628 0.0500413
        -0.602499 0.814105 0.485536
        -0.47527 1.06681 -1.14137
        0.540048 0.704806 -0.0422447
        -0.484673 1.30675 -0.290085
        -0.196983 1.47078 0.563668
        -0.599014 -0.160615 -0.295714
        0.0978129 1.29927 0.0503431
        -0.467814 0.625853 1.39873
        -0.417421 1.52749 1.30715
        0.36359 1.66799 0.971273
        -0.625365 2.2474 -1.0648
        0.145118 1.61015 0.424911
        -1.26999 0.651031 0.340171
        0.532189 1.70209 -0.869509
        0.340947 2.21674 -0.0548392
        -1.14603 1.64947 0.0528814
        1.0226 2.0166 -0.630914
        -1.20271 1.39572 0.00371428
        0.512033 2.45177 0.815425
        -0.969664 1.91056 -0.207555
        0.82024 1.10373 -0.0645057
        -0.628047 0.689008 0.932034
        -0.0301947 1.92414 0.693491
        0.227607 0.815575 0.555001
        -0.407957 1.03948 -0.339377
        0.461775 2.25431 -1.02724
        0.39094 1.44168 1.46982
        -0.508943 1.39849 -0.0242978
        -0.433701 1.18335 -0.978674
        0.863871 1.04589 0.145884
        -0.509665 0.862657 1.12348
        0.994976 0.378015 -0.314327
        0.444702 0.0287999 -0.780005
        -0.0770907 1.65207 0.449252
        0.220174 0.509872 0.190068
        0.615298 1.73684 -0.423564
        -0.134712 1.3487 0.779885
        0.586995 2.25227 1.25334
        0.863522 2.99602 0.57143
        0.0626702 0.437271 -0.232609
        0.522636 1.3257 -0.34326
        0.216762 1.68579 0.191597
        -0.180453 1.58951 0.386655
        0.0897135 0.907375 -1.10972
        1.42435 1.7318 -0.516836
        -0.158883 1.20512 -0.831273
        -0.440223 1.34538 -0.0190899
        -1.10552 1.49916 0.609957
        -0.274474 2.00174 -0.374815
        0.175273 1.40337 -0.101116
        0.930142 2.02476 -0.308043
        -0.078718 0.0734617 -0.345788
        -1.04294 0.159025 -0.74012
        0.427453 1.21122 -0.181332
        -0.450614 1.98309 -0.221738
        -1.19342 -0.0831548 -0.26397
        -0.986856 2.28986 0.484453
        -1.46712 0.379529 -0.518132
        0.899514 1.65317 0.403398
        0.359729 2.15116 -0.428195
        0.227162 1.36072 -1.11799
        0.0363591 0.871553 -0.0675834
        -1.09483 0.432374 -0.588844
        -0.737926 1.66022 -0.811889
        -0.927115 -0.498444 0.320551
        0.555936 1.0293 -0.752088
        0.268469 0.302853 0.0828074
        -0.806773 2.77402 0.125847
        0.103849 0.691923 0.0140656
        -0.510638 1.66752 0.182201
        -2.5501 2.39723 0.350278
        0.0167381 1.90333 0.484776
        -0.607638 1.73678 -0.820625
        0.759934 1.31957 1.74262
        -0.422815 0.686483 0.309409
        1.0255 0.975466 0.167356
        0.393934 1.48718 -0.35883
        0.00670263 1.49812 1.34885
        -1.04418 0.554908 -0.280104
        0.400894 1.20896 1.19126
        0.178434 2.01516 -0.23909
        0.0988576 2.00199 0.108494
        1.05229 0.655883 -0.585302
        -0.111904 0.9493 -0.581029
        0.782724 1.13782 0.610689
        1.3498 0.0433966 -0.138353
        0.0153443 2.26717 -0.6875
        1.15036 -0.6604 -0.939627
        -0.328879 0.944215 -1.06686
        -1.06654 1.94374 -0.87186
        -1.07051 1.72445 2.08316
        0.135392 0.367105 0.293853
        -0.163555 1.48705 -0.19357
        0.0692747 0.796225 -0.82903
        1.2436 1.13185 -1.09445
        -0.421234 1.90114 1.85081
        -1.3981 1.54618 1.06919
        -0.575934 1.03325 0.271707
        0.335247 1.81332 0.434707
        -1.51858 1.77226 -0.409937
        0.362777 0.224585 1.86818
        -1.51656 0.281053 -1.26086
        -1.41345 1.48066 -0.421169
        -0.636799 1.5129 1.11973
        -0.787168 3.11286 -1.48998
        -0.157182 0.0965079 0.595288
        -0.72877 2.45771 0.176792
        -0.403655 0.845095 -0.653013
        -0.716651 0.138659 0.829523
        1.03276 1.75117 -0.542141
        -1.3578 1.5265 1.07974
        0.19322 2.67676 0.795751
        -0.0245539 0.45771 -0.240667
        -0.262158 1.79883 1.26296
        0.783285 1.70392 0.272478
        -0.364384 1.62329 1.29511
        -0.00342544 1.83983 -0.0954671
        -1.49088 0.596868 0.418779
        0.126698 0.392128 0.740755
        -0.847508 1.46697 -0.548598
        -0.043509 -0.165327 0.332537
        0.401716 -1.0009 0.799171
        -0.812216 -0.643783 -0.0250666
        -0.461884 -2.25835 1.30663
        0.810733 -1.35939 -0.292725
        -1.13117 -1.42549 0.332453
        -1.16656 -1.46856 0.0707121
        0.344408 -1.75277 0.372707
        1.16564 -1.1174 -0.308977
        -0.620082 -1.67015 0.931394
        -1.27075 -1.38523 -0.775685
        0.308666 -2.31673 -0.793493
        0.0909178 -1.8603 1.69464
        -0.51464 -0.577102 -0.987892
        -0.758426 -0.662235 0.144274
        -0.183175 -1.33878 1.58645
        -0.493284 -1.48701 -0.669697
        1.17852 -0.977145 0.483122
        -0.555725 -1.39325 -0.63829
        -0.634308 -3.79341 0.194625
        -0.491028 -1.97998 -0.72194
        0.356104 -1.57291 1.29347
        0.15032 -0.879196 -0.0917345
        0.403699 -0.886152 1.27012
        0.209287 -1.37337 2.04595
        0.0809066 -1.35241 0.0489407
        1.33731 -1.02191 -1.06123
        -0.872649 -1.35032 -0.977823
        0.178695 -1.74971 -0.618767
        -0.840875 -1.50642 -1.30557
        0.623048 -0.407712 2.23461
        -1.47614 -1.46996 -1.07855
        1.28789 -1.46161 0.433909
        0.422201 -0.307429 -0.185483
        -0.227219 -2.08288 -0.0373179
        0.298725 -1.72538 1.00442
        1.16289 -1.96096 0.0689582
        -0.653991 -1.63463 0.642982
        -0.198734 -0.800168 0.868111
        -0.0130648 -0.5545 -1.37606
        -0.209289 -1.05709 0.265713
        -0.0589772 -1.60215 0.920235
        -0.851338 -1.15152 0.95152
        1.00181 -1.11773 0.471421
        -0.30508 -1.52455 1.04636
        0.554507 -0.905301 0.274862
        -0.70734 -2.08669 -0.717862
        -0.308191 -0.44492 -0.127541
        0.673006 -1.60389 1.48515
        -1.07365 -0.497127 0.0442229
        0.169509 -0.899031 0.00462384
        -0.30784 -2.00652 -0.294369
        0.625932 0.050933 -0.016147
        0.414449 -1.27147 -0.810249
        -0.038995 -2.01362 0.149955
        0.907999 -1.4332 -0.737909
        -0.54172 -0.461937 0.446166
        -0.323147 -1.4018 0.135121
        -0.0566443 -0.519922 -1.24863
        1.32035 -1.25207 -0.649181
        -0.929322 -1.75044 -0.56118
        0.594555 -1.45608 0.545965
        -1.32533 -1.8968 -0.458407
        -0.546642 -0.308196 -1.40334
        1.53114 -1.44332 -0.561202
        -1.32201 0.213031 0.423029
        0.689066 -1.12733 -0.198808
        1.20156 -0.859969 -0.434388
        -1.73491 0.36701 -0.729123
        1.44271 -1.73289 -0.765387
        -0.352383 0.0957775 -0.549317
        0.536203 -0.616271 0.983856
        0.631479 -1.53606 -0.0374215
        -0.0567922 -2.02295 -1.28416
        -0.700654 0.450786 0.0665552
        -1.60669 -0.816205 0.105774
        -1.33112 -0.599429 -0.511013
        -0.520242 -1.58925 0.065808
        -0.463248 -1.49952 -0.150522
        0.251086 -0.428892 1.8391
        0.649542 -2.49997 -0.370862
        -0.80734 -0.808717 -0.0763567
        -0.78576 -1.06416 0.743901
        0.224957 -1.34407 0.137723
        0.957898 -1.38402 0.478675
        -1.11934 -0.382378 0.140219
        -0.457518 -1.31641 0.0250917
        1.13564 -1.19935 -0.327574
        -2.02881 -1.77023 0.120106
        -2.65064 -1.77915 -0.0697894
        -1.21945 -0.391522 0.975571
        -1.74305 -0.940938 -0.679406
        -0.0385395 -1.39038 -0.214538
        0.784193 -1.99433 -0.740946
        0.729965 -0.0270293 0.564017
        -0.869398 -1.83892 -0.32595
        0.00257072 -1.61004 1.13563
        -1.06363 0.0346682 0.650511
        -0.533014 -3.17288 -0.00035308
        0.278031 -1.10573 -0.185818
        -0.324639 -1.52708 -0.12534
        0.416694 -2.72014 0.914543
        0.0509779 -1.30704 -0.549722
        -0.350985 -1.38009 -0.219245
        0.524362 -1.77445 -1.03698
        -0.643035 -0.420449 -0.285648
        -0.309025 -0.408061 -0.124086
        0.36184 -0.817411 -0.833986
        0.354071 -1.20827 0.483706
        0.0966188 -0.532422 -0.708589
        -0.298747 -0.934218 -0.235016
        1.14024 -0.652944 -0.0331061
        -0.600363 -2.3672 0.38679
        -0.362851 -0.894424 0.835736
        -0.618121 -2.30589 -0.996948
        -0.395591 -1.18692 0.295464
        -0.357064 -0.132718 0.420415
        -0.0209838 -1.39884 1.04214
        0.771831 -1.80026 0.10825
        0.644032 -0.907532 0.679382
        0.509665 -1.98457 -0.148874
        -0.66848 -0.947073 -0.20705
        0.264035 -1.31387 0.656698
        -0.450514 -0.340218 -0.184969
        -0.403644 -1.57823 0.295315
        -0.896066 -0.245229 0.762047
        0.892449 -2.12974 -0.35105
        -0.075513 -1.63843 -1.75077
        -0.526874 -0.619289 0.235639
        0.741787 -2.54404 -0.846202
        0.171412 -1.1875 -0.573825
        0.875711 -0.646474 0.154758
        -0.145799 -1.81193 -0.346675
        0.165971 -2.33898 -0.510089
        -0.065235 -1.76661 -0.0274488
        0.168151 -3.14194 0.684701
        -1.03562 -1.42924 0.305644
        -1.11708 -1.73611 1.21433
        0.450524 -2.3274 -0.58849
        0.711943 -1.97709 -1.05944
        1.27498 -0.398149 -0.559632
        0.341256 -2.15232 0.522466
        -0.227339 -0.485733 0.228541
        0.756042 -1.87278 -0.37823
        -1.22035 -1.0884 0.828229
        -0.621825 -0.28007 0.10017
        0.110367 -2.34176 0.103994
        -0.336313 -1.5805 -0.779839
        -0.0746537 -0.461008 0.143993
        2.51059 -0.238761 0.0607847
        0.713353 -1.04709 -0.385243
        -1.72264 -1.21261 -0.764894
        0.347753 -1.03597 -0.226125
        -0.676248 -1.44702 0.617444
        1.69614 -1.69478 -0.812218
        -0.222374 -2.09683 0.75706
        0.200137 -0.532192 -0.442025
        0.0895472 -0.952044 -1.3092
        -0.234969 -1.25251 0.246419
        0.311515 -1.59913 0.957093
        0.421698 -2.11 0.685391
        -0.517189 -2.57982 -0.453953
        0.377105 -1.72003 -0.30096
        -0.530943 -0.156302 0.505026
        -0.969242 0.583707 0.826239
        -0.952024 -1.35578 -0.22678
        -0.515549 -1.26073 1.0569
        0.0287395 -0.815576 -1.42923
        -0.121589 -0.269973 -0.261413
        -0.646041 -2.09788 0.00208028
        0.98251 -1.25409 -0.38485
        0.761868 -0.312261 -0.713868
        0.251079 0.141362 -1.075
        -0.313353 -0.65856 0.562429
        -0.388362 -1.83203 0.38615
        -1.2165 -1.18085 -0.319468
        -0.631196 -1.25454 -0.566277
        -0.877971 0.228135 -2.18528
        -0.866576 -1.40348 -0.511056
        -0.0597034 -2.05967 -0.595235
        -0.435663 -1.93937 0.475175
        0.973494 -0.162661 1.15386
        -1.10031 -0.646351 0.336862
        -0.227519 -2.14938 0.341558
        -1.18519 -2.10812 1.71296
        0.293857 -0.958268 0.064616
        0.175222 -2.60699 0.638537
        -0.899662 -0.808131 -0.279956
        1.15237 -1.44132 0.48758
        -0.279558 -0.641482 0.259097
        0.243046 -1.24101 1.60662
        -1.60545 -1.08018 0.963056
        0.385482 -0.269152 0.211967
        -0.0915533 -0.28143 0.953134
        -0.750372 -1.71294 0.545932
        -0.9444 -1.06831 -0.857552
        -1.00138 -0.471172 0.278191
        -0.0440765 -0.788219 0.566965
        -0.0559489 -0.893455 -0.0428971
        -0.846866 -1.70206 -0.131788
        -0.376708 -1.50623 1.55492
        -0.713065 -1.63493 -0.324988
        -0.506243 -1.74725 0.406989
        0.0491542 -0.112156 -0.348628
        -1.34274 0.252104 0.577377
        0.313305 0.298604 0.0388166
        0.608708 0.37179 -0.156211
        0.275337 0.390258 -0.0533519
        1.37877 0.47544 0.471807
        -0.0447403 0.745707 -0.957059
        1.56351 0.408368 0.806281
        -0.563319 0.666138 -0.750865
        -0.500806 0.23876 1.14128
        1.27007 1.14608 -0.116213
        0.242433 0.360904 0.223217
        -0.21758 0.477326 -0.0368283
        -1.31648 -0.233098 0.207554
        -0.336481 -0.725708 0.00445259
        0.567741 -0.0640943 -0.0850681
        0.957392 0.484111 -1.3747
        -0.286288 -0.00968242 0.390894
        0.0804122 1.25548 -0.186203
        0.20431 1.28812 -0.116567
        1.16374 1.43841 -0.915216
        -0.244741 1.81571 0.233423
        0.0944342 0.597899 -1.27495
        0.538248 1.83571 0.554004
        -0.773947 0.444108 -0.161007
        -0.753411 1.30759 -0.746144
        0.6811 0.581128 -0.419762
        -1.28626 0.70683 1.02668
        0.334073 0.267461 1.39159
        -0.188489 1.18034 0.84539
        -0.0196766 1.15845 0.73608
        -1.1148 0.90069 -0.584782
        1.15009 0.731376 0.333004
        -1.2906 0.815613 1.12773
        -0.577894 0.792395 0.682022
        0.165898 1.22431 1.44169
        -0.430328 0.708958 -1.81282
        -0.13085 2.53356 0.844653
        -0.299256 2.8891 0.686578
        1.11308 2.17904 1.30574
        -0.202971 1.17721 0.177654
        -1.15967 1.42414 -1.24685
        -0.0290584 2.34616 -0.958834
        0.485164 0.691525 -0.539526
        -0.41212 2.78287 0.0829168
        0.880643 1.5821 -0.626033
        0.818525 1.9414 -0.741869
        0.6535 0.952755 0.732977
        -0.0864986 1.65266 -0.778362
        -1.17913 1.05768 -0.475917
        0.882909 0.596683 0.655375
        -1.30892 1.29982 -0.277455
        -0.0896103 1.38807 -1.14117
        0.491954 0.877938 0.515571
        -1.02868 0.685903 -0.0790124
        -0.175102 0.9246 1.04392
        0.546432 0.939291 1.15443
        0.677774 2.00136 -0.630804
        -1.07971 1.72083 -1.50081
        0.450064 1.14503 0.596565
        -0.00526053 0.615769 -0.0459088
        -0.450489 0.485878 1.02336
        -0.0742938 1.86032 0.0744032
        -0.595952 1.98201 -0.31772
        -0.764463 1.1265 -0.159062
        0.525653 0.904381 1.35632
        0.34602 0.891726 -0.486459
        -0.720725 0.983845 1.16166
        0.631606 2.64501 -0.271176
        0.114943 1.98277 -0.174217
        0.509627 0.632773 0.359929
        0.241241 2.02736 -0.695174
        0.0890222 2.55988 -0.211091
        0.401152 0.479567 0.285041
        -0.429019 0.677711 -0.666771
        0.798537 2.16813 1.40183
        -1.10282 1.42125 1.4891
        0.0594347 0.923953 0.455078
        -0.248598 2.45148 0.321682
        1.12859 1.45906 1.11439
        0.437556 1.93524 -0.113031
        -0.594783 1.23804 0.140128
        -0.728583 0.0524046 -1.15276
        1.20124 2.51818 -1.86737
        -0.18925 1.24859 0.266227
        0.420837 0.350393 0.616983
        -0.448977 2.1533 0.382066
        0.984386 3.23377 -0.411067
        -0.462491 1.1333 0.0831165
        0.607881 2.19909 0.381158
        0.252077 2.00582 -0.465961
        0.256095 2.1645 -0.34617
        1.13735 0.816207 0.100232
        0.823161 1.18637 -1.2092
        0.688792 1.58592 0.28942
        -0.681419 0.1909 0.252632
        0.954554 0.420067 -0.908453
        0.315347 0.707784 0.27127
        -0.0191104 0.602489 -1.2719
        1.51578 0.801509 -0.0034363
        -1.1009 1.22328 -1.17152
        0.229162 1.12297 -0.527987
        0.510773 2.08863 -0.878109
        -0.405725 0.232464 -0.133769
        -0.622051 2.34807 -0.676586
        -0.0520895 1.65526 0.113505
        1.0351 1.27489 1.51776
        0.0540264 0.823385 -0.884241
        0.804735 1.78875 0.516969
        -1.41608 0.24521 -0.210884
        -0.272582 1.27072 -0.405108
        -0.879571 1.02094 0.733098
        -0.216794 1.5279 0.207285
        0.148418 1.98871 0.42054
        -0.397929 1.53205 -0.800637
        0.156344 1.04141 -0.375383
        -0.169402 1.14599 0.837239
        0.0475627 1.21645 1.40544
        0.484612 1.07537 0.741645
        -0.601752 1.75419 -0.958325
        0.0971166 0.927165 -0.776285
        -0.401273 1.98763 0.0406524
        -0.0299133 2.80774 0.0936754
        -0.537303 2.04165 0.0940673
        -0.6329 1.56324 0.268174
        -0.784445 0.800551 0.616401
        -0.472296 1.40432 0.438577
        0.152773 2.76673 0.713641
        0.467511 1.28605 0.68345
        -0.416644 0.061731 -0.185869
        -0.222557 0.758375 0.439446
        0.817442 1.57517 -0.544465
        -0.000337874 2.04134 -0.844018
        0.0633702 0.61254 1.26204
        0.32812 1.70943 0.295937
        -0.380467 1.96283 0.288515
        -0.100036 1.30373 0.576127
        -0.126167 1.40068 -1.34972
        0.0158058 1.85711 0.236675
        -0.250131 2.49121 -1.0161
        -0.296246 0.656058 -0.957178
        -1.35484 2.60563 1.23307
        0.812778 0.888859 0.951593
        -0.0180518 2.11749 0.427958
        0.880251 2.0221 -0.359086
        0.680302 1.14121 -0.681085
        1.05658 2.45386 -1.31604
        -0.440116 2.4678 0.0952589
        -0.667083 2.35717 0.439925
        -0.910047 1.05249 0.0680042
        -0.796779 1.10454 -0.201556
        0.0762903 1.42062 -0.3822
        -0.681858 1.38434 -0.522433
        -1.28339 2.00682 -0.350137
        -0.595406 2.7637 1.12734
        -0.626192 -0.0626325 -0.397412
        -0.598986 0.643032 0.414846
        0.397109 1.90019 -0.0406402
        -0.371532 -0.030351 0.882177
        0.596553 0.968338 -0.692651
        -0.459335 1.68174 -0.699392
        0.78242 1.1262 -1.36072
        -1.66322 1.80123 0.0719848
        1.90256 1.70991 -0.728551
        -0.3336 -2.7382 -0.895163
        -0.972383 -1.53024 -0.176592
        0.552209 -1.43037 0.283822
        0.0980099 -0.619384 0.110597
        0.0845847 -2.42719 -0.132647
        -0.882651 -1.64919 0.790669
        0.336956 -2.16389 -0.101045
        0.487571 -1.30268 0.20441
        -1.37404 -2.44072 0.365974
        -0.0895686 -1.60519 -0.294037
        0.411017 -1.53225 -0.534645
        0.721416 -1.39857 1.1686
        0.253971 -1.75713 -0.388593
        -0.626373 -1.48548 1.48316
        -0.0503832 -1.89442 -0.793723
        -1.24001 -2.06358 -0.817315
        0.29282 -1.45886 -0.308961
        -0.236169 -2.13343 -0.19409
        0.230312 -1.84535 0.0424607
        0.105865 -1.06978 -0.990952
        -0.805902 -1.85246 -0.0434296
        1.14265 -1.46542 0.588141
        1.45861 -0.371786 0.228238
        0.565631 -1.27489 1.51634
        0.308759 -1.45618 -1.00284
        0.271002 -1.33984 -0.492605
        0.240279 -2.63231 -0.183949
        -0.634349 -0.818351 0.52402
        0.773195 -3.70405 0.28506
        0.124944 0.391141 -0.251378
        0.413086 -2.5162 0.56878
        0.25545 -1.9161 0.4715
        -0.682947 -1.09882 -0.582844
        0.352043 -0.667129 -0.926382
        1.49335 -0.763697 -0.862882
        -0.180961 -2.98966 -0.0703811
        -0.319639 -0.897553 -0.00433994
        -0.161219 0.0377141 -0.744258
        0.00943788 -0.330848 -0.320969
        0.682496 -1.54751 0.421598
        -0.0339117 -1.67734 1.23269
        -1.38358 -0.335932 -0.331548
        0.0105229 -1.02339 -0.879781
        -0.858144 -1.79036 0.302492
        -0.148654 -1.4679 0.142064
        0.268661 -1.90242 0.504387
        -0.965248 -0.516359 -0.27336
        1.4762 -1.40149 -0.286466
        0.402666 -1.41732 -0.964274
        0.0735605 -2.13722 0.0163556
        0.603568 -0.401434 0.28445
        -0.0231465 -1.76122 -0.989672
        0.103035 -0.7969 0.333466
        -0.476091 -0.748223 0.161498
        -0.137011 -1.71188 -0.0248359
        1.47112 -0.885637 -0.462797
        -0.170377 -1.62195 -1.08768
        1.4177 -0.830263 1.05415
        -0.571972 -1.65871 -0.0251339
        -1.48459 -0.599156 -0.547159
        -0.167068 -2.49781 0.382531
        -0.399197 -0.515542 -0.204557
        -0.280534 -1.23091 -1.21771
        0.987111 -2.85705 -0.728787
        -0.492896 -1.88088 0.214812
        1.12377 -1.4705 -0.502852
        1.10628 -1.58842 -0.879643
        0.388372 -2.24544 0.344941
        -0.59541 -0.930105 -0.0179368
        0.169208 -1.63427 0.307008
        1.45374 -1.2804 -0.520202
        -0.506547 0.550635 0.400482
        0.683653 -1.24177 -0.357173
        0.0214975 -0.47227 0.43825
        -0.217966 -1.81185 0.18588
        -0.80072 -1.52796 -1.34422
        0.504489 -0.207284 0.241241
        0.560627 -0.874474 -0.694469
        0.131576 -1.24023 -0.188441
        -0.0190405 -0.611542 0.830517
        0.303544 -1.52299 -0.612292
        -0.174439 -0.980555 -0.145212
        0.710632 -0.831195 -0.561595
        0.5655 -1.33596 0.212555
        -2.03944 -2.14203 0.166177
        0.0580894 -2.50779 -0.52935
        0.956987 -2.96764 -0.232591
        -0.103161 -2.90558 -0.466758
        0.707835 -1.08641 0.033339
        0.780828 -0.601285 0.0377954
        -0.00767543 -0.268866 -0.264095
        -0.67525 -2.08118 0.246081
        0.723314 0.446485 -0.786712
        -0.49796 -0.538593 -0.782388
        0.120154 -3.23005 -1.10318
        -0.535227 -1.84645 -0.00350893
        0.454476 -0.434293 -0.840145