<?xml version="1.0" encoding="UTF-8" standalone="no" ?>
<VTKFile byte_order="LittleEndian" type="UnstructuredGrid" version="0.1">
  <UnstructuredGrid>
    <Piece NumberOfCells="0" NumberOfPoints="1764">
      <PointData>
        <DataArray Name="velocities" NumberOfComponents="3" format="ascii" type="Float32">
        -0.934235 -0.189343 0.854976
        -0.72749 -1.87156 0.41997
        -0.547887 -0.766663 -0.0299177
        -1.02207 -0.684433 -0.308791
        -0.940344 -1.3558 -0.226295
        0.583459 -1.2952 -0.531901
        0.0326042 -0.762471 -0.967489
        -0.981934 -1.38162 0.477207
        0.509215 -0.547209 1.27744
        -0.272972 0.0696675 -1.09055
        -0.132522 -1.95868 0.132147
        -0.204288 -1.31836 -0.706711
        -0.150717 -1.23099 1.44649
        -0.512217 -1.2533 0.0956742
        0.248189 -0.641541 -0.731921
        -0.466428 -0.916453 0.222391
        -0.109146 -0.597681 -0.500188
        -0.10308 -2.3733 0.499808
        -0.703577 -2.03665 0.979511
        0.222115 -2.44233 0.696417
        -0.559351 -0.0107866 -0.290284
        0.534924 -1.07686 0.53884
        1.64222 -1.52088 -0.833057
        0.0645539 -1.36522 0.416299
        0.0788806 -0.705637 -1.36097
        0.056976 -0.86978 0.162017
        -1.4138 -0.583165 -0.321154
        -0.00459166 -1.88481 -1.12214
        -0.662872 -1.72458 -0.533784
        -0.35158 -1.08189 0.330065
        -0.141934 -1.41608 0.18382
        -0.236687 -2.29529 -0.782913
        -0.512998 -1.614 0.327447
        1.10773 -0.648067 -0.196158
        -0.265147 -1.19267 -1.00539
        -0.0157035 -2.7513 -0.669916
        0.131429 -1.21731 -0.990076
        0.501447 -1.89207 0.370015
        0.72915 -2.40918 0.384275
        -0.865803 -1.55245 0.971927
        -0.920003 -0.0699031 0.435746
        -0.0426594 -1.27085 -0.0124495
        -0.684683 -0.562354 -0.0721361
        -0.0685621 -1.51633 0.731768
        -0.281215 -1.86485 -0.888724
        0.0230971 -0.877391 -0.856354
        -1.02198 -0.48649 -1.09764
        -0.625317 -1.55487 0.177068
        0.996726 -1.01655 -0.830529
        -0.035736 -0.69968 -0.0160697
        -0.371166 -0.580886 -0.568895
        0.352552 -0.626617 0.756225
        0.274463 -1.93423 0.422961
        0.335439 -0.324464 0.468756
        -0.559473 -1.35443 0.490133
        0.177031 -2.8682 -0.843384
        0.636153 -1.57237 -0.192497
        0.256578 0.305509 1.33719
        -0.378909 -0.747543 0.938098
        0.447903 0.91598 0.0991195
        0.00404512 -0.395142 0.331378
        -0.500641 -2.84811 0.284645
        1.03466 -0.928953 -0.333312
        0.342065 -1.34456 0.318461
        -0.102476 -2.04186 0.634938
        0.191665 -1.56386 -0.967861
        1.31049 -1.11013 1.24116
        -0.817705 0.568202 -0.588954
        -0.370839 -0.391105 -0.686153
        -0.170493 -0.835396 -0.0519395
        0.21712 -0.0120561 -0.0706885
        -0.873848 -2.08411 -1.55981
        0.117309 -1.45175 -0.010618
        0.727458 -1.7836 0.943965
        -0.954136 -0.973957 -1.20264
        0.0460556 -1.38193 0.0692423
        -1.46218 -1.51079 0.343889
        0.532184 -0.499488 1.29416
        0.523043 0.550048 -1.31319
        1.18219 -1.77052 -0.406212
        -0.117376 -1.17461 0.897369
        -0.351216 -2.14463 0.0712382
        1.09285 -1.85332 0.896529
        0.332356 -2.0666 -0.946661
        0.828159 -0.71542 -0.343011
        -0.335004 -1.18645 0.117822
        0.877076 -1.38646 -0.750987
        0.684158 -1.5605 0.363327
        -0.167862 -0.598924 -0.678655
        0.416002 -0.612116 1.1256
        0.328956 -1.17034 -0.883982
        -0.751123 -1.49761 -0.36288
        1.6974 -1.33022 -0.36665
        0.154559 -1.74466 0.187509
        1.09159 -1.52483 0.154216
        0.0922504 -1.20222 0.503044
        -0.484404 -0.879359 0.0512722
        0.685175 -2.0277 0.745025
        -0.191288 -0.541323 0.438314
        0.319567 -1.25876 -0.419965
        -0.478747 -0.94683 -0.134959
        0.458795 -0.174883 0.530814
        0.298192 -0.617779 0.291433
        -0.401507 -0.623227 -0.349196
        0.860296 -3.30179 0.0498676
        0.763906 -1.83329 -0.134726
        -0.397632 -0.923773 0.368348
        0.320635 -1.82187 0.377708
        0.525571 -1.11557 0.251363
        -0.417099 -1.36708 -0.0535649
        -0.189616 -1.05541 -0.461047
        -0.514561 -1.29767 -0.129827
        0.0831451 -2.42226 -0.076144
        0.803269 -2.72262 0.570614
        0.232595 -1.88826 0.385011
        0.369052 -1.6916 0.63012
        -0.128027 -1.02643 1.07596
        -0.2904 -2.03165 -1.07693
        0.00465505 -1.5546 -2.05715
        -0.455584 -1.33881 0.0613206
        -1.2307 -3.17656 0.76411
        0.277974 -1.68666 -1.13067
        1.95116 -1.09972 -0.883262
        -0.859772 -2.16469 0.736398
        0.377849 -2.0404 -0.17496
        -0.777449 -1.60041 -0.828974
        0.446712 -0.59439 -0.419176
        0.422599 -1.114 -0.832331
        0.274152 -0.96701 -1.07699
        0.831008 -0.995256 0.0631334
        1.05407 -2.43548 -0.78759
        -0.5036 -2.18127 -1.14689
        0.703208 -0.013387 -0.288828
        -0.435108 -0.422628 -1.01707
        -0.757415 -1.60785 -0.465016
        1.80445 -1.91743 0.11708
        0.771958 -1.38649 -0.613966
        -0.825344 -0.796866 -0.115549
        -0.0544769 -0.628419 0.678266
        -1.15755 -0.841792 0.0814746
        -0.0438911 -1.69238 0.476381
        -1.04469 -1.64859 0.89304
        -0.163939 -0.713364 -0.291052
        -0.312917 -0.274409 -0.0330773
        -0.382724 0.300763 -0.52297
        1.33188 -1.50375 -0.0828588
        -0.308998 -1.83782 -0.65597
        0.0727876 -0.796944 -0.272941
        0.960861 -1.81209 -0.213232
        0.169205 -1.20362 0.27113
        -1.14487 0.0399099 -0.2754
        -0.364976 -1.17913 0.811447
        -2.26382 -0.642728 -0.808272
        0.6812 0.00442575 -1.23301
        -1.08347 -1.12165 -1.37353
        0.106938 -1.81368 0.859153
        -1.31078 -1.49077 0.959244
        -1.49043 -1.05621 -1.9689
        -1.04017 -0.333319 -0.220484
        -0.927217 -1.57969 -0.0784333
        -0.132062 -0.900366 -0.469819
        -0.233773 -1.33484 0.780212
        -0.351528 -1.4035 -0.120754
        0.124833 -0.638578 0.0252064
        -0.71227 -0.30707 0.0639957
        0.500448 -0.0880143 0.0802697
        -0.0748289 -1.05632 1.07361
        0.362664 0.781177 0.546493
        0.0276752 -2.06901 1.07498
        1.26924 -1.04718 -0.833635
        1.00803 -0.0707387 0.125993
        0.487518 -0.621567 0.0304271
        -0.624762 0.674614 -1.00635
        -0.396685 0.41001 1.4343
        -1.68599 -0.708732 -0.566839
        0.377381 -1.33551 0.141949
        -0.927283 -1.44194 0.297299
        -2.33074 0.448157 0.441285
        -1.50103 -0.908596 -0.619989
        0.0528325 -1.06539 -0.0244697
        1.26538 0.191836 0.523667
        -0.958265 1.5354 0.377419
        0.453613 0.38815 -0.326919
        0.181731 0.787729 0.30625
        0.589921 1.39034 0.0936971
        -0.406605 0.876604 0.419967
        0.569717 2.22357 -0.0852026
        -0.739397 1.15524 1.1393
        -0.206982 1.07058 -0.202826
        -0.631991 0.11335 -0.160493
        1.3646 0.145366 0.56326
        -1.18032 1.54398 0.394516
        -0.0909741 0.901707 0.0121965
        -0.5831 -0.469027 -0.786704
        -0.598975 0.406156 -0.00645285
        -0.172805 -0.544477 0.495429
        0.201417 1.05686 0.758563
        -0.845981 1.60661 -0.0117855
        1.16913 0.909267 0.5067
        -0.419222 0.0188506 0.159103
        -0.38668 0.69408 0.721728
        -1.42891 0.965941 -1.30951
        0.283867 0.463455 0.11861
        -1.01938 1.51062 0.720304
        0.798414 1.4289 -0.0699196
        -0.114515 1.23138 0.928077
        0.222557 2.58006 0.0926364
        0.429917 1.30336 -0.501896
        -0.188541 -0.74013 0.302903
        -0.424081 0.69637 0.700115
        0.138927 1.22825 0.962238
        -0.988983 1.86717 -0.321702
        1.44473 -0.343681 -0.0106321
        1.78351 1.47384 -0.878506
        0.340764 0.189917 0.501576
        1.01353 1.47556 -0.710778
        -0.403704 0.794564 -0.694396
        -0.353198 1.91524 0.412102
        -0.51867 2.42269 -1.95665
        -0.595788 1.98383 -0.662661
        -0.786357 2.12395 -0.0672456
        -0.30683 0.957779 0.398685
        0.463813 1.36688 -0.422523
        0.572994 0.955637 0.102913
        -0.997063 1.54698 -1.17119
        0.312491 2.69857 0.469259
        -2.14698 2.50992 -0.931238
        -0.507407 2.25826 -0.34315
        -1.16845 1.04731 0.21655
        0.582743 1.52791 0.887335
        0.304325 1.5207 0.229378
        -0.199073 0.62498 -0.589389
        -0.228945 1.03356 -0.636556
        0.854118 0.867997 -0.296765
        -0.555817 1.01193 -0.989139
        1.23232 1.51463 0.0639764
        -0.344288 1.76466 -0.848391
        1.06099 1.57185 0.827496
        0.607585 2.97482 0.260677
        0.347492 1.92361 1.10973
        -0.0924534 1.15072 -0.45739
        0.589899 0.622911 1.47703
        0.299879 1.44046 -1.34868
        -0.658898 -0.095831 -1.00934
        -0.0139587 1.29276 0.60154
        -0.0988223 1.22932 -1.19177
        -0.702911 1.43677 0.0521929
        -0.433609 0.675245 0.34231
        -0.684192 0.286754 0.638891
        -0.221719 -0.257811 0.914823
        -0.870543 2.09919 -1.05405
        -1.07702 0.944237 0.6071
        0.830495 1.6328 -0.92715
        -0.738418 2.10575 0.0719273
        -0.304912 1.68294 0.116349
        1.02837 1.36185 0.847881
        -0.464686 1.72687 -1.23626
        -0.691064 0.918118 -0.390029
        0.0263252 2.24064 -0.190417
        -0.629958 0.530972 0.211915
        1.13598 2.52571 -0.167643
        -0.205391 1.12896 0.772356
        -1.14606 1.12716 0.232865
        0.0550405 1.78026 0.162757
        0.449665 -0.315892 -1.45297
        -0.330047 1.28991 -0.437901
        -0.411857 1.509 0.435301
        -0.511053 1.01966 -0.55944
        0.426354 0.338762 -0.906902
        -1.92463 1.0066 -0.170607
        0.622331 0.776958 -0.0952296
        1.34662 1.14995 0.0281398
        -0.906202 1.55085 -0.592228
        -1.02431 2.00998 0.503286
        0.147838 0.951039 -0.358261
        -1.12636 1.41006 0.0222551
        -0.527399 0.0539418 -0.276992
        -1.09698 1.8842 -0.602341
        -0.868795 1.71268 -0.227025
        -0.880162 1.78572 -0.765169
        0.133619 1.5221 0.427603
        0.407715 2.64131 -1.0209
        -0.293256 0.853256 -0.0283516
        -0.614426 0.604012 0.728153
        -0.76986 2.13207 0.971846
        0.643934 1.79825 -0.420625
        -0.00316761 0.758054 0.0380432
        -0.385152 0.112185 0.437314
        -0.361463 2.23766 0.558242
        0.634617 1.01608 -1.02397
        -0.793015 2.3025 0.256354
        -0.239482 1.93681 -0.280346
        -0.957094 1.90062 0.283236
        0.358617 1.7716 -1.69846
        -0.572905 0.107924 -0.62695
        -0.894313 2.72198 -0.182293
        0.872732 0.149188 -1.43904
        -1.55465 1.98482 -0.169755
        0.343016 1.76486 -0.0560628
        -0.0758765 2.25694 0.848283
        0.844247 1.80982 0.599548
        0.533184 1.97853 -0.190105
        -0.53349 1.53438 0.124722
        0.135302 1.03089 -0.0366745
        -0.222066 1.14 0.71716
        -0.17039 2.19656 0.526356
        -0.433653 0.978164 -0.699724
        -0.890228 1.73682 0.963985
        -0.228985 0.90164 -1.01134
        -0.292658 0.440336 -0.0837786
        0.451307 0.0448308 0.265533
        0.187445 1.83846 0.519588
        -0.773526 2.24367 -0.162702
        0.973741 0.392166 0.545051
        -0.629857 2.07611 0.0387638
        -0.155751 2.14545 0.846629
        -0.358585 1.64715 -0.0747908
        -0.506672 2.36713 -0.12424
        -0.24986 1.73438 0.530804
        0.317707 1.00526 0.759469
        -1.40642 0.628349 0.241228
        -0.0811979 0.768076 0.581738
        -0.0195615 1.40568 1.22526
        0.786868 0.570728 -0.107877
        -0.048399 0.872326 -0.0180021
        -0.285758 0.655458 0.433853
        0.241128 0.854223 -0.514763
        0.613684 1.94606 0.424103
        -0.626619 1.76638 0.191473
        0.787702 1.84748 0.700016
        0.596793 1.14403 -1.17785
        1.26987 3.21593 -0.516206
        -1.39067 1.13762 0.863259
        -0.962128 0.925623 0.0665393
        -0.830938 0.791601 0.531626
        -0.258391 3.14235 -1.59103
        0.587743 0.97812 0.198975
        -0.000219852 1.34386 0.538482
        1.01089 1.69906 0.667146
        -0.26424 1.62975 0.891638
        0.720293 1.09807 -0.145168
        -0.807268 1.23602 0.0364757
        -0.520126 2.21858 -0.100918
        -0.607407 2.03748 -1.00306
        -0.0500714 0.791491 -0.394613
        -0.739195 2.24467 -0.419036
        -0.284725 1.51251 -0.0475484
        0.27437 0.15317 1.56674
        0.433332 1.72568 -0.922121
        -0.988094 1.88424 -0.302604
        -0.880411 1.16944 1.09652
        0.830462 1.4636 -0.158973
        -0.488452 1.92568 0.730486
        -1.18351 1.87199 -0.170188
        1.07777 1.65925 0.643117
        -0.148962 1.664 0.685421
        -0.484823 1.52639 1.22909
        -0.141783 1.02145 -0.662095
        -0.856735 0.780122 -1.09011
        -0.11117 1.13285 -0.271851
        0.117065 0.830507 0.00843646
        0.0637072 1.34367 -0.66511
        0.328273 0.178352 -0.243342
        0.221989 1.27736 0.387396
        0.86552 0.77493 -0.148155
        -0.171256 1.22397 1.06128
        0.596589 0.636353 0.621167
        -0.273651 0.561174 -0.16106
        0.056579 0.239141 0.436353
        1.56125 0.865632 1.04317
        0.128868 1.38517 -0.387374
        0.356787 0.36957 -0.0342114
        -0.52398 2.66277 0.851184
        -0.0707975 2.35685 0.594318
        -0.793248 1.49735 0.0556654
        -0.0816723 1.42687 -0.36679
        1.03652 -1.42875 -0.973305
        -0.593745 -1.55405 -0.0206327
        -0.224511 -1.25219 0.425782
        0.615761 -0.221699 0.279766
        -0.936624 -0.5762 0.474866
        0.584468 -2.50845 0.0939721
        -1.34766 -2.63745 0.0798248
        0.299195 -1.42038 -0.133098
        -0.762286 -0.370997 -0.924927
        -0.225933 -1.12289 -0.720523
        1.0059 -0.473928 -0.374948
        0.00859032 -0.767206 -0.660577
        -0.322669 -0.322444 -0.105498
        0.87601 -2.42522 0.147614
        -0.111238 -1.14752 0.201678
        -1.17588 -0.646295 0.230976
        -0.15599 -0.959148 1.05252
        -0.81057 -0.99452 -0.0451236
        -0.644021 -0.983383 -0.454406
        -0.018477 -0.606054 -1.11718
        -0.439854 -0.607928 -0.937028
        0.292589 -0.533865 0.831736
        -0.0155431 -1.13182 0.745992
        -0.112793 -1.43868 -1.42435
        -0.427381 -0.144514 0.493833
        -0.373345 -1.63636 -0.266123
        0.375126 -1.52501 -0.73489
        0.108526 -3.19533 1.71648
        0.161199 -0.597219 -1.09861
        -0.109027 -0.658087 -0.0175468
        -1.68878 -1.39154 -0.25574
        0.662079 -0.831873 0.686091
        -0.786683 -2.05671 -0.0595615
        -0.304713 -0.963659 -0.30174
        0.566365 -1.06242 0.719235
        1.42099 -0.633778 -0.248027
        0.0690452 -2.16762 -0.560019
        0.584002 -2.88706 0.0865204
        0.793759 -1.71881 0.638302
        0.381847 -1.21939 0.435447
        -0.666856 -1.47613 -0.448962
        -1.20054 -1.22674 0.616879
        -0.333279 -1.64883 0.594764
        -1.38127 -0.84668 -0.32717
        0.0745447 0.27743 0.272442
        0.613382 -1.0706 0.691413
        0.542453 -1.22691 0.30339
        1.68678 -1.57422 0.344673
        1.80517 -1.25572 -0.894311
        0.230284 -0.0617483 -0.950761
        -0.20991 -0.97813 1.44953
        0.132715 -0.602623 0.604584
        -1.20404 -2.13331 1.17778
        0.522024 -2.56972 1.56742
        -0.767204 -1.12693 1.27047
        -0.362193 -2.17132 0.855593
        0.316846 -2.24963 -0.789083
        -0.653013 -1.73888 0.57017
        -0.748378 -2.20994 0.329687
        0.634597 -1.1266 -0.0206559
        -0.621532 -1.07831 -0.253328
        -0.0646605 -0.43725 -0.247612
        -0.823668 -0.239089 -0.874474
        0.220896 -1.55721 -0.214552
        -0.92301 -2.35138 0.412292
        0.98908 -1.01851 1.1341
        0.383734 -1.82427 -0.429354
        0.039122 -1.88073 -1.0586
        1.18415 -1.8429 -0.0616611
        0.396521 -1.19391 0.825345
        -1.53054 -1.15049 0.268609
        -0.127223 -1.4847 -0.409551
        0.942898 -1.12593 -0.338381
        0.32982 -1.26832 -0.46476
        -0.979 -1.05592 0.80993
        0.0781811 -0.307191 0.861799
        1.28316 -0.711624 0.141777
        0.145644 -2.04521 1.56918
        -0.528175 -0.204789 1.02555
        -0.786876 -1.74586 -0.375678
        0.162573 -0.269452 0.568869
        -1.19961 -1.84059 -0.379237
        0.727137 -2.00955 -0.957834
        0.18243 -1.32289 -0.140318
        2.10284 -1.07057 0.281711
        -0.50442 -2.7471 -0.0661995
        -0.0944298 -1.09866 0.11759
        -0.940377 -0.627026 1.12744
        0.341482 -1.39941 -0.0174828
        -0.150354 -3.07164 0.290858
        0.00618401 -2.20738 -0.132802
        -0.206611 -1.24705 1.63391
        0.495499 -0.686882 -0.401752
        0.668567 -1.4548 -0.739199
        -1.01828 -1.45677 -0.625887
        -0.922643 -1.96002 0.602305
        1.16478 -0.565697 -0.241991
        0.0035849 -1.8399 -0.41859
        0.0278809 -0.532537 -0.726033
        0.498478 -1.25996 -1.14514
        -1.38936 -1.84711 -1.1959
        -0.37873 -2.83169 -0.309142
        1.12409 -1.69012 -0.115191
        -0.231456 -0.975077 -0.210042
        -0.64508 -0.348467 0.160028
        -1.21572 -0.387431 -0.190226
        -1.1989 -1.86133 -0.63261
        -0.284453 -1.51003 0.345258
        0.163992 -1.05321 -0.506299
        -1.38167 -0.598585 -0.395945
        0.0952708 -1.44956 -0.977661
        -1.25244 -1.28654 0.991153
        -0.564652 -1.54744 0.499741
        0.193222 -1.8508 -1.16813
        -0.123344 0.395059 -0.268227
        -0.158327 -2.24707 -1.12664
        0.908114 -1.96748 -0.940992
        -1.69102 -1.19982 0.125552
        1.03797 -1.20979 0.596384
        -0.517062 -0.203632 -0.44519
        0.475589 -1.94556 -0.115552
        0.953842 -2.56379 -0.00596309
        -0.534036 0.264132 -0.559645
        -0.255338 -2.34074 0.420312
        0.14921 -1.18551 0.250587
        -0.107371 -2.11724 -0.23492
        0.549131 -1.94763 -1.17874
        -0.0559555 -1.31242 -0.290279
        -0.831345 -0.473457 -1.52579
        -1.0161 -0.237476 0.148422
        -1.04549 -1.24605 0.190951
        -0.286983 -1.16839 -0.524519
        0.878768 -1.73221 0.0108276
        0.585781 -2.08672 0.887474
        -0.652628 -1.96492 0.327319
        -0.29912 -1.76441 0.239625
        1.07568 -0.876834 1.38806
        0.30669 -1.99683 2.00243
        0.210059 -2.199 0.554877
        -1.11187 -0.367321 0.189396
        0.202449 -1.87749 0.477498
        0.83141 -2.2634 0.258009
        0.759212 -1.91884 -0.253993
        1.6758 -1.30963 1.00735
        -0.283063 -2.45274 -1.82054
        -0.0162501 -1.24061 0.906461
        -1.08545 -0.635385 1.57235
        -0.148747 -1.62412 0.468428
        0.545962 -0.168359 1.15067
        -0.303461 -2.47702 -1.58652
        1.06478 -1.51161 1.3764
        1.36979 -1.77142 -0.127235
        -0.645692 -2.00651 0.522213
        0.111373 0.841014 -0.423044
        0.618475 -0.899668 -0.799635
        -0.28654 0.81742 -0.601053
        0.506672 -0.857219 0.827215
        1.1065 -0.997004 -0.192315
        -0.683472 -1.08553 0.262351
        0.0946422 -1.31794 0.672103
        0.0838572 -0.607461 -0.631279
        0.616305 -0.947251 -0.560642
        0.511578 -1.58171 0.287118
        0.80174 -2.16236 -2.21443
        -1.97146 -1.35234 -0.0447099
        -0.407688 -2.36948 -0.154292
        -1.71306 0.0870293 1.00119
        0.533414 -1.55413 -0.340769
        1.01079 -0.968789 1.10629
        -1.40966 -1.38857 0.0260398
        -0.624611 -0.288737 1.348
        -0.918099 -0.299598 -0.787771
        0.556583 -2.20739 0.583341
        -0.248499 -2.05802 -0.353941
        0.404734 -1.43176 -0.232059
        0.420046 -0.319933 -0.104537
        1.07964 -1.39207 0.378712
        0.801887 -2.53339 0.0494236
        1.1948 -0.881939 0.292798
        1.24191 -0.689484 -0.316299
        0.68258 -0.293623 -0.4886
        -0.344418 -1.99312 0.0199242
        -0.731896 0.15773 0.0733947
        -0.38315 -0.753994 -0.883747
        -1.19559 -0.755096 -0.474022
        -0.882534 -1.09503 0.0817082
        2.38444 -2.05936 0.0735827
        0.331714 -2.19727 0.508374
        -0.321732 -0.480868 0.406171
        -0.193679 0.0748939 1.37444
        -0.981743 0.598915 0.111103
        0.366388 -1.86524 0.400765
        -0.980762 0.813296 -0.433485
        0.180923 -0.456376 -0.502852
        -1.79154 -1.60921 -1.12679
        -0.455986 -2.34274 0.459499
        -0.158015 -0.608685 -1.04206
        1.15927 -0.716685 0.639455
        -1.31941 -0.0311899 1.01667
        -0.0748982 -0.614442 0.499631
        0.658202 1.01793 -0.808567
        -0.702184 -0.941929 -0.946589
        0.6274 -1.66041 0.350031
        -0.900416 -1.48894 0.483558
        1.65522 -0.458991 0.290155
        0.274288 1.21782 -0.638592
        -0.0714471 0.707355 1.40907
        1.17121 0.338624 0.283921
        0.0362593 0.176094 -0.742604
        -0.329148 0.799194 1.26878
        0.822725 0.171999 -0.984552
        0.243065 1.38216 0.417961
        0.249607 0.612213 1.23286
        -0.321462 -0.195335 -0.218897
        0.723657 -0.637107 0.288223
        0.255595 -0.304285 1.48167
        1.52875 0.704067 0.106199
        -0.691279 0.164481 0.51534
        -0.759517 -0.304839 -1.21155
        -0.656947 0.032685 -0.207019
        -0.318087 0.580388 -0.00777927
        0.505365 0.265711 0.292057
        0.86373 0.897057 -1.13142
        0.218857 0.835634 0.913234
        -0.0756511 2.06259 0.746241
        -0.351126 1.52813 -1.52049
        0.294937 1.32242 -0.11579
        1.26475 0.871059 2.47594
        0.741827 0.0884725 1.10291
        -0.131229 1.97863 0.657865
        0.549279 1.37726 0.14944
        0.65242 0.979814 -0.508113
        -0.316616 0.754853 -0.275962
        -0.641242 1.93855 -0.599201
        1.16854 2.05433 0.687809
        0.816822 1.22904 -0.183757
        0.394335 2.49078 0.474021
        1.31477 0.793666 0.490528
        0.920736 0.59806 -0.684899
        0.474187 1.76233 -1.9324
        0.294755 1.42554 1.02877
        0.52838 0.217476 -0.837641
        -0.015675 0.81172 0.128561
        -0.0885897 0.721112 0.352398
        -0.340053 0.63459 0.521397
        -1.11172 1.38041 -0.817001
        0.833452 2.76297 1.30339
        -0.168616 1.99449 0.49313
        -0.0904186 2.8151 -0.458718
        -0.278005 1.40596 -0.574421
        0.707682 2.24976 0.316799
        -0.92783 0.1465 0.999772
        0.099071 1.02311 0.28343
        -1.05578 0.0205438 -1.26114
        0.55462 1.17491 -0.614738
        0.698222 2.52478 2.58548
        -0.986695 0.77636 0.659555
        -0.927998 2.05119 -0.193257
        -0.515935 0.928354 1.24809
        -0.0469512 1.65707 0.316579
        0.653574 2.81223 -0.0243814
        0.51726 0.969555 -0.39233
        0.0703002 2.1277 -1.48258
        -0.405531 2.08618 0.288777
        -0.714303 1.38459 -0.00730506
        -0.311937 1.67917 0.982921
        0.6597 1.54787 0.20583
        -0.521463 0.36624 -0.812731
        -0.384543 1.82014 -0.282405
        -0.588638 1.33146 -0.63939
        -0.905673 2.12291 -0.559467
        -0.619603 -0.274496 -1.14
        -0.203884 1.67269 0.00735322
        0.0787752 1.44679 0.723824
        0.547889 1.2516 1.24826
        -0.218911 1.48519 -0.0859077
        -0.155247 0.542284 0.387061
        -1.4127 1.52881 -0.348505
        -0.265904 0.715778 0.161663
        -1.18629 2.24686 1.23723
        0.617779 0.967472 -0.848498
        0.880139 1.27365 -0.497469
        -0.101835 1.79203 0.829165
        0.0194745 2.84452 0.474019
        -0.439201 2.29339 0.743555
        0.869259 1.41894 1.13464
        0.379668 0.670528 -0.849661
        -0.109687 0.941683 -0.563237
        -0.087998 2.31582 0.338266
        -0.235141 1.83566 1.17811
        0.47059 0.43005 -0.931711
        -1.15244 0.15496 -0.292318
        -0.0941713 2.92824 0.892194
        -0.237774 1.24152 -0.713972
        -1.0238 2.0792 -0.7995
        0.58302 1.23668 -0.544564
        -0.388766 1.97919 0.452687
        -0.332259 0.183254 0.545491
        -0.832673 0.829718 0.350054
        -0.719008 0.779877 0.757425
        0.30304 1.93728 -0.319716
        0.524447 1.754 0.02414
        -0.852249 1.07654 -1.06965
        -0.606421 2.13535 -0.0759629
        0.948046 0.415574 -0.228051
        -0.607189 2.05565 -0.265782
        -0.0730767 1.0816 -0.382221
        0.481741 0.855051 -0.0333302
        -0.290376 2.88347 -0.293526
        0.0344505 0.183121 0.0475858
        -0.394311 0.960054 0.470898
        -0.121264 0.351583 0.0338459
        -0.174769 0.379003 0.463777
        0.51495 1.32509 0.144786
        -0.60935 1.43425 0.380564
        0.955584 1.61698 0.791118
        -0.645487 2.03979 0.328401
        -1.48572 2.61008 -0.0725258
        0.625448 1.13181 -0.096512
        1.35456 1.44047 0.00674589
        0.199421 -0.304003 -0.173417
        -1.25346 1.18041 -0.689666
        0.231358 2.53197 -0.552675
        0.132804 0.194716 -0.0591464
        -0.933699 1.2402 -0.760543
        0.657829 0.47334 -0.107146
        0.182698 1.59091 0.202765
        1.1552 0.774032 0.376543
        0.448278 0.537187 -0.058226
        -0.389124 1.70596 -0.571624
        0.793412 0.273685 -0.424222
        -0.153946 2.46402 -1.40123
        -1.22633 0.429412 -0.881096
        -0.499944 0.735883 0.653283
        -0.0734078 1.79814 1.69925
        -0.51353 1.71892 0.00202219
        -0.214938 2.22475 0.854281
        0.257527 1.55638 -0.454492
        0.851105 1.02654 -0.487059
        -0.289047 1.11312 1.13064
        -0.0333876 2.12801 0.0519851
        -1.32054 0.798335 -0.34921
        0.130708 2.28287 0.272348
        -0.222587 2.72415 -1.23728
        -0.255733 0.948218 -0.385682
        -0.187317 0.895038 -0.352727
        0.91413 1.57755 -0.662959
        1.47896 1.69354 -0.371899
        1.26774 3.13692 -1.07271
        0.17411 2.08574 0.63868
        1.38651 1.75104 -1.29006
        1.58805 3.12827 0.75967
        0.41941 2.31235 -0.146134
        1.19753 1.53797 -0.0683132
        -0.507917 1.41805 -0.473869
        -0.0961987 1.60859 0.26082
        -0.282793 0.832331 -0.035367
        -1.54952 1.12479 -0.748542
        -1.65564 3.06356 -0.155588
        -0.0623003 0.423662 -0.12961
        0.318785 1.47713 -0.616331
        -0.836858 0.147898 0.0901725
        0.962612 0.37718 0.367527
        1.19582 2.4694 0.182442
        -0.121303 0.507111 -0.284452
        0.195862 -2.35656 -1.6928
        0.0779195 -1.01686 0.437019
        -1.63654 -0.514638 -0.684115
        1.12951 -2.11914 -0.118943
        -0.132815 -0.194722 0.0591563
        0.655245 -1.74691 0.781476
        -0.288833 -1.4582 -0.651418
        0.0384058 0.0271965 -0.735392
        0.61891 -1.56148 -0.3024
        1.68372 -0.50965 0.450883
        -0.47059 -0.43005 0.931709
        -0.0156136 -1.82691 -0.874375
        0.148859 -1.84785 -0.386181
        0.829806 -2.98159 0.177498
        -0.150942 -0.111028 -0.552698
        0.266592 -1.96985 -0.2458
        0.704822 -2.20796 -0.183215
        0.663523 -2.12136 -0.148381
        -1.48475 -0.432013 -0.016879
        -0.344455 -2.28843 -0.0797744
        -0.311151 -1.24838 0.675594
        -0.665257 -1.74885 -0.470856
        -0.394673 -1.67493 0.684406
        -0.371391 -1.37483 -0.468685
        0.635896 -1.14646 1.34882
        0.350568 -2.06876 1.57785
        -0.260862 -1.4223 0.399271
        0.389008 -2.13398 -0.382475
        0.768603 -2.03001 0.128879
        0.652494 -1.96103 -0.841868
        0.658576 -0.614726 0.849227
        1.05887 -1.6168 0.193192
        1.08408 -1.81813 0.691845
        1.81288 -1.30537 0.143093
        -0.0427538 -1.47098 -0.272924
        -0.192993 -1.77895 0.776486
        -0.861766 -0.159573 0.883976
        1.92917 -1.87008 -0.953756
        -0.0286794 -1.21191 0.58902
        0.93456 -0.0752564 -0.622954
        1.28157 -0.717123 -1.10809
        -1.08171 -0.844135 -0.108735
        0.0435098 -0.934696 1.68166
        0.196966 -0.461846 2.21706
        0.0902338 -1.09745 0.479919
        0.513854 -1.09414 -0.295492
        0.816842 -0.521269 -0.39115
        0.158268 -1.6463 -0.240337
        -0.226471 -1.79225 -0.0983716
        0.467786 -1.69291 -0.293653
        -0.023687 -1.63443 0.0325427
        0.673673 -0.643929 -0.894757
        0.0789389 -0.832437 -0.388826
        0.0506 0.178028 -0.193582
        -0.253318 -1.14455 -0.417281
        0.437933 -0.903618 -0.423296
        -0.250048 -1.66346 0.533413
        -0.0283004 -1.56624 0.708456
        0.405291 -0.761189 0.302236
        0.451056 -2.30063 -1.51846
        0.112269 -1.08725 -0.0649131
        -0.882727 -1.88218 -0.0733268
        0.424375 -1.01394 -0.895916
        -0.68554 -0.724837 1.23946
        1.29656 -1.95763 0.0019546
        0.58416 -1.5583 0.470175
        -1.3296 -1.16081 -0.568004
        -0.0357374 -1.11452 -0.590272
        -0.204556 -1.22653 0.313707
        0.241034 -1.37279 -0.602471
        -0.0513392 -0.711644 0.46081
        0.97754 -1.37609 0.907556
        -0.323675 -1.63034 0.348874
        1.10435 -0.977048 -0.078318
        -0.740073 0.111061 0.0312237
        -0.944913 -2.47535 -1.33095
        0.148988 0.347522 0.513415
        -0.0472206 -1.55443 -0.986997
        0.447444 -0.358282 0.0553464
        -0.0555279 -0.0924738 -0.726114
        -0.352803 -1.62632 0.759523
        0.166942 -2.31521 -0.81241
        -0.893742 -2.22393 -0.0463786
        -0.531036 -1.53309 -0.807962
        0.432087 -1.5906 -0.82161
        0.0300193 -1.8803 -0.30835
        -0.285776 -2.17535 -0.61597
        0.216726 -0.0169189 1.02664
        0.330063 -1.20243 1.45618
        0.6758 -1.7335 1.28618
        -0.180249 -0.364021 0.486017
        0.805334 -1.87805 0.91834
        0.188815 -1.38294 0.989329
        0.0114679 -1.12139 -0.0365155