<?xml version="1.0" encoding="UTF-8" standalone="no" ?>
<VTKFile byte_order="LittleEndian" type="UnstructuredGrid" version="0.1">
  <UnstructuredGrid>
    <Piece NumberOfCells="0" NumberOfPoints="1764">
      <PointData>
        <DataArray Name="velocities" NumberOfComponents="3" format="ascii" type="Float32">
        -1.01295 -1.54547 -0.140065
        0.50007 0.545361 1.39547
        0.630375 -1.35238 -0.745929
        1.60827 -1.63638 -0.83171
        0.396913 -1.76571 -0.344723
        0.0382858 -1.26916 0.279655
        0.714438 -1.81048 -0.84252
        0.255671 -1.46631 -0.0495632
        -0.406161 -2.19212 -0.0104051
        -0.803887 -2.13446 -0.488397
        0.42357 -0.845847 0.189157
        -0.310168 -1.11293 -0.0221573
        0.225402 -0.508725 0.294859
        0.244663 0.0217336 -1.08362
        -0.101356 -1.09188 -0.780749
        0.251175 -1.56539 0.480558
        1.01961 -1.3044 0.207135
        0.0210443 -1.36781 0.317573
        0.659972 -1.18239 -0.136858
        -0.281921 -1.70648 0.219473
        -0.39252 -0.695963 0.185572
        0.519411 -0.281989 0.127451
        0.650753 -1.35526 -0.748071
        -1.24274 -2.12859 -0.757316
        -0.785406 -0.978146 0.173084
        -0.00403188 0.717938 1.06462
        -0.436422 -1.27457 -0.510803
        1.69577 -0.636329 -0.230514
        -0.527157 -2.13925 -0.656983
        1.71299 -0.735968 -0.0535095
        0.742675 -1.17075 0.709858
        -0.150974 -0.636393 1.53578
        0.0269172 -1.69842 1.04694
        0.896635 0.242338 -0.189689
        -0.934132 -1.31255 -1.6218
        -0.611886 0.622485 0.0649354
        -0.497561 -1.42383 0.110277
        -0.982748 -1.34662 0.544308
        -0.53565 0.015325 0.137172
        -0.116795 -1.71046 0.591078
        0.69386 -1.58173 -0.118065
        1.76736 -1.09015 0.102498
        1.72153 -1.65378 -0.681558
        0.946907 -1.57552 -0.58957
        0.141392 -2.86164 0.202735
        1.00095 -0.950984 -0.386519
        -0.837887 -1.83133 -0.749996
        -0.14626 -1.11254 -0.137314
        -0.172899 -1.65274 0.220081
        -0.321587 0.194861 -1.33018
        -0.31066 -2.37066 -0.0500492
        1.08807 -0.747571 0.716836
        0.189271 0.134394 -0.822505
        0.254895 -1.40544 -1.01867
        1.38899 -0.590314 -0.413304
        -0.404599 -1.1311 -0.57768
        -0.767942 -0.70612 -0.646944
        -0.790607 0.684339 -0.643044
        -0.0814427 -1.74324 -0.32675
        0.613411 -1.63421 0.379927
        0.633142 -1.74865 1.25235
        -0.0261192 -0.839871 0.0892002
        -0.00426245 -0.598509 0.218341
        -0.198816 -3.05507 -0.798414
        0.636542 -1.36121 1.06713
        -0.607888 -0.573548 0.271748
        0.234529 -2.98593 0.584637
        0.321135 -2.02627 -0.723216
        1.16331 -0.898746 -0.404262
        -1.71364 -1.40097 -0.339361
        -0.768277 -1.34948 -1.4347
        -0.171344 -0.97559 -1.1027
        -0.335284 -1.35532 1.27014
        0.617527 -0.956682 0.339451
        -0.21901 0.418016 0.405049
        -0.0914628 -0.967482 0.189125
        1.53054 -1.40312 -0.307172
        0.771766 -2.62275 0.742627
        -0.583499 -0.370718 -0.0981344
        1.00635 -1.72162 -0.661452
        0.977751 -1.18608 -0.565983
        0.676467 -1.18783 1.08458
        0.648409 -1.21882 -1.76987
        -0.279512 -0.46665 0.191889
        0.144601 -2.24958 -0.0116358
        -0.257298 -1.35743 -0.358817
        0.387142 -2.09997 -0.615514
        -0.462104 -1.22908 -0.821297
        -1.01132 -0.519391 -0.153186
        0.127144 -0.638969 -1.73839
        -0.336857 0.000633844 0.348557
        0.449204 -0.613929 0.438846
        -0.266252 -2.46363 -1.45399
        0.561758 -0.0374014 1.07643
        -0.778096 -1.57375 1.50261
        -0.317543 -1.65472 -0.235701
        -0.0974038 -1.16338 -0.380701
        0.746313 -2.04729 0.0852863
        -0.0757389 -1.46708 -0.531051
        -1.40679 -2.11886 1.28438
        0.178245 -1.45914 -1.00661
        -0.429207 -0.959668 0.616911
        -0.685199 -2.30988 1.21377
        -0.371344 -1.13336 0.371436
        0.0439898 -2.40518 -1.22579
        0.571999 -0.850463 0.369399
        0.9511 -2.72565 0.650407
        1.03519 -1.11624 0.888401
        0.0499164 -1.48556 -0.13397
        0.297807 -1.29677 -1.95503
        0.20611 -1.6161 0.769361
        0.403734 -2.02658 -1.45125
        -0.685171 -1.1152 1.26826
        0.129544 -1.75308 -0.203354
        -0.101444 -0.8043 0.0623242
        1.22298 -1.78996 -0.557614
        0.160999 -1.83127 -0.581953
        -0.660003 -1.44564 0.42164
        0.35843 -3.27254 -0.275545
        0.71002 -2.04505 -1.7528
        0.509755 -1.29692 -0.159766
        0.307266 -1.66632 -0.306799
        1.34272 -1.30303 0.632075
        -1.24277 -2.22798 0.315806
        0.466893 -1.63817 -0.984732
        0.617519 -1.60023 0.86622
        -0.933179 -0.610736 1.59817
        1.68306 0.431742 0.359583
        -0.0857416 -0.50992 -0.795295
        -0.64814 -1.60742 0.377667
        -1.07929 -1.71271 -0.339746
        0.745834 -0.666519 -0.699404
        -1.08353 -1.97786 0.433169
        0.975467 -1.91618 0.416853
        0.517395 -0.495293 1.35913
        -0.228853 -2.0726 -0.658174
        -2.16381 -2.60508 0.9753
        -0.919985 -1.95733 -0.361637
        -0.0531074 -1.58595 0.232608
        0.239002 -0.928473 0.795078
        -0.362357 -1.28824 -0.609498
        1.17975 -1.41096 0.22397
        0.407526 -1.13745 0.28311
        -0.0181197 -0.961541 -0.256686
        -0.958576 -2.33082 0.737554
        0.0802474 -0.911515 -0.384057
        -0.0357398 -0.675009 -0.586836
        -0.0166524 -0.950324 -0.768376
        -0.0641691 -1.92349 1.1132
        -0.322045 -0.520643 -0.0373135
        -0.526726 -2.08907 -0.420152
        0.0588529 -0.930178 -0.27212
        0.660899 -0.389329 0.878002
        0.448749 -2.03995 -0.588705
        0.280858 -1.59299 0.727904
        -0.383407 -0.867215 -0.0547046
        -1.02753 -2.09331 -1.05391
        0.29362 -0.154278 -1.59335
        -0.348494 -0.563431 0.0693209
        -1.37715 -1.72451 0.399313
        1.25191 -1.94905 0.44447
        -0.349299 -1.406 1.01406
        -0.711388 -0.222747 -1.77959
        0.0828427 -0.347408 -0.430766
        -1.18378 -0.233557 0.243859
        -0.438019 -1.70775 -0.568605
        -0.498729 -0.746094 0.833976
        0.506182 -0.014729 -0.472626
        -0.530453 -1.87165 0.698801
        -0.331448 -1.59062 -0.442749
        0.326687 -1.38216 1.14853
        0.49905 -1.40701 0.366078
        -0.42444 -0.188823 0.406692
        -0.694757 -0.939116 1.17952
        -0.962518 -0.187753 -1.01975
        0.265247 0.11525 -1.33652
        -0.0315174 -0.890288 0.34278
        0.57371 -0.259654 -1.42444
        0.581899 -0.63947 2.11217
        -0.877573 -1.05814 -0.288583
        -0.800211 -1.21746 0.495856
        0.0892528 -1.48306 -0.798621
        0.125084 -0.907639 -1.43543
        -0.464995 -0.718037 -0.831178
        -0.659788 -1.11239 2.64387
        -0.0478758 -0.577762 0.375474
        0.126989 -0.834315 1.24147
        -0.169575 -2.31831 0.628371
        0.137209 -1.89163 0.49124
        1.87559 0.275852 -0.571541
        0.784758 -0.321771 -0.100399
        0.826447 -0.187996 -0.094995
        0.0892721 0.143631 1.04022
        0.424469 0.205768 -0.376608
        0.68489 0.326674 0.23727
        -0.971859 0.284667 -0.520489
        -1.58011 -0.452922 0.241324
        -0.232916 1.74281 0.670302
        0.576918 0.183925 -0.544532
        -0.276336 0.654797 -0.341581
        -1.50741 1.37322 0.31122
        -0.889567 1.30469 0.51348
        0.180184 -0.313513 -0.0520457
        0.440384 1.81676 1.2229
        1.71159 1.1408 -0.348841
        -0.565785 0.268232 -0.100146
        -0.575394 1.48798 -0.282213
        0.619071 0.613611 -0.0724718
        0.0811972 0.642491 -0.763984
        1.55883 1.24626 0.199953
        -0.00581795 1.72922 2.25844
        0.376178 0.578626 -0.0924905
        1.11264 0.914166 -1.15084
        -0.841328 1.83359 0.34358
        -0.211039 1.31865 -0.435014
        1.18211 2.38257 0.0796922
        -0.0250578 1.20333 0.0223292
        0.567933 1.49495 -0.440748
        -0.0777637 2.71887 -0.956511
        0.150207 1.02741 0.0105455
        -0.751891 0.610153 0.27358
        -0.430927 -0.64244 -0.424307
        1.29679 1.28487 -1.59193
        0.400752 1.18087 1.09422
        0.00178595 1.82972 0.00158679
        -0.0475648 0.702046 -0.986351
        -1.10931 1.8186 -0.458428
        0.926712 1.21505 -0.970202
        -0.428757 1.46988 1.03128
        -1.09859 1.16972 -0.0979085
        0.251114 2.02266 0.250889
        0.550071 1.40062 -0.283079
        1.38805 0.270104 0.722997
        -0.703297 1.28007 -0.663941
        0.062524 0.983961 -0.351193
        -0.667611 2.05852 -0.782136
        0.560371 1.28422 0.326677
        -1.11306 -0.105993 -0.102013
        1.86513 1.99606 0.39859
        -0.354901 1.70382 -0.555985
        -0.949538 1.30716 0.758231
        -0.310132 1.6267 0.827518
        -0.908676 0.618401 0.217736
        0.415206 0.883743 0.410116
        0.394164 1.37157 -0.0493226
        0.906713 1.4436 1.09902
        0.185312 1.03231 0.0916521
        -2.07968 1.85006 -0.081152
        -0.668756 2.09615 -0.349114
        0.0264026 1.51234 -0.0266754
        -1.04237 -0.194934 0.0857643
        -0.0243938 1.65413 -0.66039
        -0.894609 0.907366 0.31769
        -0.257874 1.20182 -0.614081
        0.17205 0.958739 -0.262068
        -0.539325 1.56531 -0.30223
        0.0838353 1.22843 -0.217004
        -0.553589 0.938673 -0.0778602
        -0.369171 0.800578 1.09406
        -0.865797 1.36909 -0.653075
        0.733608 0.703647 -0.281591
        0.567776 2.05666 0.40188
        0.186911 1.89108 0.107892
        -0.0844417 0.538493 -0.209211
        0.673287 2.28582 -1.44488
        -0.0730685 1.98365 0.354918
        -0.548005 0.369919 -0.162586
        1.25762 1.10622 0.710795
        -1.49214 1.89327 0.519567
        -0.451251 1.29311 2.16129
        1.35652 1.05924 -0.262095
        -0.329021 0.952395 0.618146
        0.603875 1.01013 0.131794
        0.667585 1.55214 0.00454954
        -0.405048 0.914991 1.13991
        -0.434667 1.27852 -0.306523
        0.874416 2.34267 0.471881
        -1.46935 0.938363 0.471688
        0.496044 2.60496 0.750828
        -0.163873 0.401103 0.0798134
        -0.436036 0.552954 -0.280475
        -1.25012 1.10414 -1.19295
        -0.0765304 0.325771 -0.531491
        1.12075 0.511022 0.42472
        0.397211 -0.0530703 0.109748
        -0.0922121 0.94787 0.509266
        -0.865393 1.88317 -0.543916
        -0.935569 1.77602 -0.0800747
        -1.26692 1.7131 -0.200533
        0.153264 1.6932 -0.020778
        -0.416093 2.12578 0.20291
        -1.60313 1.83663 -0.895998
        0.954721 2.1065 -0.373102
        -0.116234 2.13876 0.319717
        0.170633 0.676966 1.0899
        -0.425244 1.02378 0.0595068
        -0.512417 1.56307 0.171843
        0.0328736 1.67182 0.349677
        -0.090431 1.1978 0.867219
        -0.556889 0.897607 -0.243706
        0.680233 1.16318 -0.777027
        -0.418204 1.80343 0.431235
        -1.54623 -0.506741 -0.061523
        0.373602 1.34077 -1.4449
        -1.21678 2.61659 -0.438354
        -0.542554 2.39291 -0.101996
        0.864604 0.996361 0.578744
        -0.340625 1.00016 0.251028
        -0.561971 2.24985 -0.608968
        0.0199715 1.92885 0.378718
        -0.297096 1.48588 0.0576123
        1.03344 0.522416 0.0988365
        0.767681 -0.0523498 1.24022
        0.284598 2.19203 0.84004
        0.34388 2.71518 1.382
        -0.0413692 0.873514 -0.333079
        0.558269 1.48248 1.46114
        0.654955 0.8533 -0.360462
        -0.278357 2.34094 0.0855549
        -1.23605 1.89851 -0.915442
        -0.131271 1.43386 -0.856739
        -0.543158 1.97745 1.33489
        0.0880106 1.43024 0.322321
        0.433962 0.16729 -0.837402
        0.548394 2.04087 -0.831849
        -0.00785451 2.64127 -0.660819
        -1.0718 1.79473 -0.679369
        -0.110185 0.948483 0.571364
        0.248407 1.50211 -0.455929
        -0.335087 0.407475 -0.353306
        -1.18562 0.575817 -1.92301
        0.230079 0.805586 -0.541127
        0.425976 0.308899 0.0468946
        0.00867106 1.64767 -0.552452
        -0.269189 0.779869 -0.477083
        -0.744044 1.04775 1.02489
        1.33108 0.813676 -0.0922357
        -1.01902 2.15247 -0.377911
        -0.917225 -0.120215 0.308884
        0.789352 0.122563 -0.0890953
        -0.996726 0.946791 -1.53999
        0.853499 -0.212296 -0.560548
        -0.528201 0.110961 0.14482
        -1.04165 2.11373 0.403723
        0.674036 1.13517 -0.528481
        0.161001 2.44099 -2.3531
        -0.0603525 2.44605 0.376982
        0.092114 1.62797 -0.852146
        0.310374 0.386089 -0.701407
        0.544912 1.32655 -0.0526067
        0.20463 1.07422 -0.149232
        -0.930185 1.4561 -0.800367
        -0.597937 1.31245 -0.695239
        0.531025 0.795916 -0.96308
        -0.202302 1.40639 0.612871
        0.362002 1.11763 -0.606186
        -0.0754804 0.210226 -0.656361
        0.625742 1.92342 -0.206942
        0.0811351 2.18312 0.305448
        -0.132365 1.47234 -1.20741
        -0.310576 0.99526 -1.32737
        0.793111 1.40305 0.29731
        0.245976 2.35378 -0.530815
        -0.31386 0.553319 0.448472
        -0.833545 2.15052 0.0036
        0.181866 1.6035 -0.75393
        0.345042 1.27929 0.706988
        -1.62524 0.27438 0.368014
        -0.104606 -0.119975 0.766159
        -0.560822 1.16692 0.57972
        0.619569 -0.625901 0.48173
        1.03276 1.75117 -0.542141
        -0.76745 0.442375 -0.0587446
        0.920948 0.403488 0.20173
        -1.45313 0.761398 -0.421596
        -0.181448 -1.07767 0.700192
        -0.726859 -0.964902 0.354412
        0.841924 -1.43159 -0.300774
        0.39756 -2.03363 0.0922345
        0.711208 -0.540461 0.402962
        -0.532347 -1.60894 -0.868423
        0.0372328 -3.09279 0.216228
        0.0721076 -1.64045 -0.504929
        1.47433 -1.54271 0.0732964
        -1.24286 -1.88843 -0.704205
        0.950558 -1.56714 -1.56362
        1.19782 -1.86779 -0.986252
        1.1518 0.0377278 0.418662
        -0.527067 -3.47273 0.761938
        -0.740077 -1.57297 -0.459001
        -0.450631 -1.43824 -0.209747
        -0.115956 -1.16813 -1.12199
        -0.977241 -0.272861 0.803329
        0.0316901 -2.21047 0.423555
        1.05544 -1.08154 0.89415
        -0.485164 -1.89431 -0.870453
        -0.141055 -1.60518 -0.745022
        -0.815922 -2.10527 0.380559
        0.50688 -1.67198 0.180395
        0.550942 -1.80161 0.982746
        -0.127786 -2.96898 0.697309
        -0.186802 -1.77912 -0.258105
        0.405674 -1.02672 0.3109
        -0.19538 -1.21013 0.61128
        0.55187 -1.00076 -0.166898
        -0.221361 -1.76819 0.800565
        1.84589 -0.345826 0.900445
        0.368379 0.432962 -0.092207
        0.88598 -0.744965 0.055163
        0.792738 -0.481832 0.802041
        -0.0477986 -0.950663 0.667689
        -0.820297 -1.00955 -0.38192
        0.936505 -1.75498 -0.193072
        -0.0288171 -1.77703 -0.475512
        -0.299305 -1.95681 1.05881
        -0.414475 -1.02758 0.49341
        -0.623209 -1.04306 1.38779
        0.772144 -1.7701 -0.111791
        0.706313 -0.77488 -0.259386
        0.785562 -2.21514 0.0697975
        -0.446099 0.0728372 -0.264038
        0.485601 -0.902031 -0.97954
        0.114365 -0.6081 0.736859
        0.105523 -1.35224 -0.771755
        -0.979793 0.0558912 1.01272
        0.213528 -1.4038 -0.923445
        0.013806 -1.32804 -0.29782
        -0.980295 -1.76927 -1.27599
        -0.783683 -0.86908 0.113756
        -0.561626 -1.33205 -0.165078
        0.794424 -1.65907 -0.1779
        -0.287251 -0.682328 1.67591
        -1.41329 -0.516344 0.781074
        0.676052 -1.57145 -1.71071
        0.141748 -1.14213 -1.13129
        0.0270672 -1.80068 0.898501
        -1.12073 -0.103678 0.493334
        -0.762571 -0.40951 0.407721
        -0.630732 -0.944195 0.538089
        -0.772949 -1.84577 1.09088
        1.26682 0.261886 -0.892177
        0.474548 -2.32118 -0.22507
        -0.751191 -2.4935 1.18038
        -0.341161 -2.17806 0.872616
        -0.245491 0.618126 -0.496904
        0.181383 -1.06235 0.29024
        -0.230056 -1.62748 -1.83635
        0.678698 -0.705429 0.234173
        -0.174471 -0.560541 -0.240798
        -0.934343 -1.15576 0.406437
        -0.375276 -1.25172 0.445839
        -1.09475 -0.604021 -0.44378
        -1.11021 -2.79071 0.626116
        0.51656 -1.82041 -0.388591
        0.160302 -0.692927 -0.0174387
        -0.130013 -1.30793 -0.300183
        -0.195967 -1.76956 0.0991507
        -0.765553 -3.00014 0.221385
        -0.790148 -1.15168 -0.0283761
        0.875113 -1.7995 -0.0563326
        0.318947 -1.82941 -0.230104
        -0.786621 -0.475222 0.457839
        -0.959717 -1.29352 -0.511877
        -0.940601 -0.551784 -0.932953
        0.014279 -0.144793 -1.15094
        1.51145 -0.477543 0.197808
        -0.96602 -1.4575 0.372266
        -0.468629 -1.51661 0.594295
        0.258611 -0.763923 0.314886
        0.59089 -0.608487 -0.379483
        -0.280252 -0.247402 -0.676625
        0.331615 -0.370089 0.794951
        -1.08947 -1.73032 1.17441
        -0.427329 -2.17153 -0.978828
        0.644291 -2.54691 -0.401354
        -0.679125 -2.10962 -0.488781
        2.04081 -0.458648 0.661574
        -0.269228 -1.3394 -1.09163
        0.310624 -1.99512 0.747432
        0.573829 -0.741428 0.868576
        -0.65063 -1.04511 0.288567
        -0.118246 -1.45987 0.959006
        -0.228945 -0.142159 0.754348
        -1.14908 -0.386946 -0.729759
        -0.923016 -2.09831 -0.301629
        -0.0853357 -0.948995 1.38853
        0.86337 -1.70991 0.106553
        -0.752595 -0.129757 1.1055
        -0.604551 -1.35997 0.584142
        -1.01253 -2.39087 -0.647959
        -0.819524 -0.246559 -0.394801
        -0.0851562 -0.971864 0.727833
        -0.572595 0.409634 0.0895335
        -0.661062 -2.17282 -0.305742
        0.490294 -1.96807 -0.912523
        -1.16034 0.217523 0.00469754
        0.285591 -1.11073 -0.315556
        1.32614 -1.14453 1.16478
        -0.520807 -0.605398 0.675006
        -0.0722801 -2.16972 -0.728513
        0.723048 -1.31412 -1.3161
        -0.731018 -1.096 -0.108261
        -0.083146 -1.52634 0.446894
        0.597168 -1.90705 -0.989471
        0.160246 -1.75602 0.532079
        -0.366093 -2.04289 -0.591056
        -0.0690637 -1.35029 0.0742922
        -0.706212 -0.91645 1.37022
        1.10529 -0.965372 0.312116
        -0.270858 -3.56022 -0.619836
        0.688288 -2.49023 0.471047
        -0.642107 -2.34588 0.900882
        -0.365776 -1.74679 -0.158894
        0.991601 -1.40525 0.299831
        -0.666791 -1.09779 -0.616587
        -1.23269 -1.59035 -0.48801
        0.126229 -1.91392 0.108972
        0.392546 -0.203886 -0.39707
        0.465191 -0.802303 -0.863339
        -0.0119029 -2.31087 0.432167
        1.56791 -1.07541 -1.30368
        0.202661 -1.53687 -0.615575
        -0.874943 -1.37449 -0.549327
        0.539494 -0.711015 1.40527
        1.38408 -1.33408 -1.30728
        0.458596 -2.27941 1.34027
        0.646056 -0.640992 -0.102418
        0.0779822 -1.45369 -0.566197
        -0.829554 -1.07305 0.041282
        1.00065 -1.79347 0.664319
        -0.611296 -2.34891 0.689491
        -0.515717 -0.627937 -0.578774
        0.347753 -1.03597 -0.226125
        -0.00852455 -0.503916 -0.49097
        -0.999249 -0.015648 0.950508
        -0.952024 -1.35578 -0.22678
        -1.36058 -1.05623 1.08212
        -0.443665 -1.82729 -0.840941
        -0.672615 -1.8178 0.774454
        -1.29616 -2.83518 -0.37521
        0.429312 -1.18251 0.193006
        0.372743 -0.723848 -0.718736
        -0.821246 -0.578389 -1.43337
        -0.365058 1.01551 -1.14141
        -0.859627 -1.66983 -0.381858
        0.403004 -0.698612 -0.650418
        0.726109 -1.5338 -0.735506
        -0.105753 -1.06607 0.63244
        -0.892952 -1.69622 -0.0203697
        -0.270897 -0.895739 -0.308798
        -0.214246 -0.584718 0.526747
        0.349413 -1.22726 -1.24994
        -1.11061 -0.436795 1.47806
        0.892293 -0.782044 0.328719
        -0.99919 -1.14773 0.319107
        0.557937 -1.17742 0.888943
        0.48726 -0.744604 0.67772
        0.873791 -0.717717 -0.369118
        -0.399483 -1.01977 -0.202316
        -0.933259 -0.64101 -0.274469
        -0.92278 -1.97742 -0.934468
        -0.583917 -1.81502 -0.13887
        0.291554 -2.08485 0.517097
        1.32788 -0.038602 -0.529856
        -0.56744 -0.654467 0.339103
        -1.39671 -1.68121 0.162947
        0.101248 -1.62527 1.23669
        -1.22925 -1.66556 0.257046
        -0.403075 -2.71699 -0.246536
        -0.665934 -0.958768 0.604976
        -0.289876 -1.66484 0.11235
        -1.21975 -1.23025 -0.319982
        0.0303415 -0.119919 -0.754575
        -0.277151 0.82808 -0.414583
        0.437853 0.0831415 0.0326179
        0.61148 0.366183 -0.161855
        0.389534 0.151384 0.246893
        -0.310012 -0.734453 1.36127
        0.471023 0.581764 -0.0664353
        0.255356 0.321976 0.935537
        0.577696 1.24071 -1.86121
        0.333821 0.447175 0.549844
        1.20419 0.612309 -0.0219862
        -0.330642 0.558559 0.49777
        -0.208832 0.562801 0.64526
        -0.605256 0.681662 -0.757862
        -0.620294 1.82202 0.705071
        0.900259 1.20248 -1.16475
        0.31151 0.457442 0.344338
        1.0235 0.548329 -0.335491
        -1.51247 0.521276 0.294159
        -0.0942378 0.0251563 1.00587
        0.806917 1.24662 0.481634
        -0.424543 1.24563 -1.59104
        0.232527 -0.0167097 -0.0990959
        0.768459 1.50566 -0.233539
        0.548686 0.0686481 0.218549
        -0.335694 0.0511265 0.855067
        1.08348 1.97959 -0.542309
        0.439974 0.557869 0.162889
        0.141022 0.490736 0.156473
        -0.00118786 1.10575 0.72529
        -1.0671 1.83198 -0.0597119
        -1.02926 1.38332 1.28191
        -0.311792 0.757815 0.144561
        -0.86888 2.23286 -0.400945
        -0.978441 1.42519 -0.465822
        0.603292 2.41094 0.713482
        0.0442337 0.846924 -0.04593
        0.762426 2.27239 1.45546
        0.375608 1.07601 0.371783
        0.563718 1.6709 0.0484231
        -1.12315 2.68224 -0.521612
        0.0555475 0.735215 -0.535429
        0.595924 2.40934 -0.71006
        0.15535 -0.31831 -1.05026
        -1.36853 1.06924 -0.184258
        0.613248 1.89436 -0.658154
        0.0164052 1.04725 0.482684
        0.0430469 0.974923 -0.247594
        0.275177 1.52217 -0.0122738
        0.147303 2.68033 -0.0627158
        0.13611 1.25926 -0.518758
        0.781727 -0.23025 0.424163
        -0.797534 2.152 -1.14192
        0.666416 2.71907 0.460475
        -0.441028 1.28486 0.464477
        0.120688 0.0874922 -1.06925
        -1.1002 0.508578 -0.154088
        -0.468227 1.76325 1.46334
        -0.0873427 1.05894 1.06878
        0.910105 1.09639 -0.630407
        0.707883 0.429417 0.590906
        0.239649 0.520411 -1.1358
        -0.196171 1.9419 1.29967
        0.482355 1.51905 -0.0414854
        0.618455 2.40028 1.14886
        0.211321 1.2637 0.550709
        -0.697544 1.87412 1.94921
        0.210993 1.5072 0.275782
        0.741268 1.96285 1.38177
        -0.0603651 2.87778 -0.157442
        -1.35023 1.91543 -0.335567
        0.994056 1.11838 -0.872215
        0.428371 1.41648 -1.30886
        -0.61438 2.24252 0.0638115
        1.17935 0.943315 0.951671
        -0.428646 2.05651 -1.32083
        -0.203588 1.82286 -1.37968
        -0.44335 2.29288 -0.00359061
        -0.878562 0.770279 -0.902208
        0.410495 2.93132 0.744812
        -0.172566 1.45637 1.3542
        1.02606 2.05751 -0.503563
        0.857631 0.942615 1.1464
        0.290847 1.85023 -0.340284
        -0.588203 2.48637 -0.903666
        0.173222 1.15948 0.0408874
        -1.18308 1.22986 -0.363581
        -0.530253 0.553981 0.423553
        0.989232 1.41558 0.838359
        0.990135 1.48494 -0.64007
        -0.497618 1.48067 -0.436533
        0.623911 0.218955 0.853316
        -0.738057 1.93804 -0.0444384
        -0.680556 0.395558 0.21142
        -0.296902 0.531264 -0.660671
        0.361732 1.56824 -0.350016
        0.549488 1.12745 0.225509
        0.184605 0.669036 0.625696
        0.596478 0.359409 -0.529753
        -1.57267 0.201631 -0.100567
        -0.804156 1.02036 -0.237238
        -0.467244 2.03035 0.582913
        -0.890662 1.38163 0.247026
        -0.305245 2.2739 0.206718
        0.359764 1.46386 -1.26277
        -0.859331 0.283414 -1.20064
        -0.527776 1.82633 -0.116056
        0.405765 1.22618 -0.606425
        -1.3914 1.64458 1.46867
        -0.554512 0.0725257 -0.78945
        -0.401815 1.82823 0.823897
        0.236762 2.49722 0.813345
        -0.648913 1.64676 -0.152916
        0.760593 1.1591 -0.110348
        -0.119276 0.475124 -0.0350091
        -0.345904 1.58308 -0.355045
        0.325608 2.02112 -0.0906589
        0.147708 0.248834 1.13692
        -0.786261 2.13566 0.57969
        -0.312488 2.10776 0.0439952
        -1.15464 1.32387 -0.808622
        -0.0622135 1.20485 1.02218
        -1.54271 0.514551 0.474039
        0.22049 1.11562 0.0567204
        -0.277534 0.640611 1.25376
        0.703798 1.71645 0.0518603
        -0.177127 0.878293 0.298464
        1.00922 0.572328 1.30398
        0.0990161 1.54604 0.248357
        -0.0562363 2.54698 1.35457
        1.24361 2.93427 1.59505
        0.0881875 1.54597 -0.840391
        -0.305466 2.20634 1.04959
        -0.519971 1.13499 0.189335
        -0.204036 2.25578 -1.18725
        -0.0484999 0.626045 -1.1084
        -1.45526 1.44351 -0.392434
        0.451334 0.661205 0.468302
        -0.466312 2.05639 0.895865
        0.323651 2.58379 0.0494294
        0.501362 1.058 -0.554293
        -0.409392 1.38817 -0.158529
        -0.64361 1.63886 0.507049
        -1.19102 1.4769 -0.65736
        -1.5903 2.81824 -0.722544
        0.00657199 1.42162 0.0723753
        0.304104 1.32642 -0.445103
        0.634247 2.44076 -0.0925721
        0.13453 1.37123 -0.325872
        0.267758 2.92532 -0.617608
        1.05368 0.873146 -0.520144
        -0.814269 1.29517 -2.50122
        -1.20305 1.79525 0.425313
        0.624384 2.15255 0.0662581
        0.530997 1.69921 -1.33138
        0.63275 1.21527 -0.255836
        0.156786 1.47541 -0.194763
        0.205853 0.354477 1.29954
        0.0714274 0.765356 -1.04391
        -0.562275 0.121578 0.113047
        0.842653 0.517755 0.94749
        0.486416 0.744543 -0.678025
        0.553372 0.601595 -0.172254
        -0.3336 -2.7382 -0.895163
        -0.650151 -1.85401 0.0351582
        0.462899 -0.164375 -0.94442
        0.509949 -1.4424 0.221286
        -0.765476 -0.846319 -0.699919
        0.298627 -1.25864 0.0204365
        0.647771 -1.15209 -0.62831
        -0.744063 -1.97066 -0.630648
        -1.3755 -2.77871 -0.750911
        0.312126 -2.1618 -0.642246
        -0.179485 -1.32558 0.538153
        0.300897 -1.32739 0.618757
        -0.194865 -0.790205 -0.0940831
        1.47961 -1.77788 0.181772
        -1.37376 -1.32416 -1.44529
        -0.706718 -0.825277 0.17785
        0.634425 -1.35497 -0.726407
        0.145273 -2.91805 0.626848
        -0.641786 -2.91233 0.0411525
        -0.176559 -2.26856 0.651998
        -0.668896 -1.46134 0.947016
        -0.0569103 0.0160665 0.179352
        0.168624 -0.702959 -0.364371
        0.797033 -1.0951 0.940574
        0.183358 -0.263642 -0.253382
        0.085146 -0.748238 -0.200599
        0.293173 -0.940101 0.00454268
        0.735063 -0.938403 -0.0359148
        -0.124969 -2.13344 1.03364
        -0.481 -1.22837 0.360501
        -0.744546 -1.81209 0.512731
        -0.169763 0.0536169 -0.369478
        1.01873 -0.765977 0.3664
        -0.845302 -1.08606 -1.35522
        0.556447 -0.88137 0.627899
        -0.258847 -2.53251 -0.0599416
        -0.184595 -1.56061 -0.0590461
        -0.895768 -1.57421 -0.29009
        -0.162292 -1.60975 0.410516
        1.54618 -0.459745 0.897119
        1.63507 -2.49877 -0.668849
        -1.71744 -1.3845 1.13409
        -0.316163 -0.684284 -0.650832
        -0.348403 -1.57099 -1.10138
        0.0612822 -1.47164 -0.986904
        0.789546 -2.03214 -0.611494
        -0.869529 -0.873185 0.278222
        0.184328 -1.27911 -0.538572
        -1.57068 -1.69027 0.758577
        -1.68616 -0.484214 -1.29121
        0.338976 -0.842444 -0.379339
        -0.0292116 -0.630768 -0.144124
        0.187383 -0.751755 -0.598453
        0.4824 -1.96198 -0.383568
        1.17001 -1.79069 0.0235057
        0.340669 -1.00851 0.837394
        0.529186 -0.522358 -0.481154
        1.00151 -2.14399 0.410513
        0.385413 -1.52832 -1.30912
        -0.137541 -2.39913 0.00134129
        0.287483 -2.30041 -1.42097
        -0.134379 -0.318206 -1.18308
        -0.490764 -0.997794 -0.0124027
        0.605484 -2.04714 -0.0216237
        0.119141 -1.52483 -0.773523
        -0.35189 -1.07315 1.15836
        0.0172728 -0.761034 -0.121163
        -0.04239 -0.912922 -0.00824575
        0.502305 -1.8294 -0.311932
        -0.125828 -2.61173 0.503958
        -0.277492 -0.897832 0.215134
        -0.0868281 -0.0802714 1.18776
        -0.590064 -1.41234 0.950306
        0.263576 -2.50993 -1.14349
        0.947243 -1.78793 -0.556553
        -0.197941 -2.66762 -0.235498
        -0.0124612 -0.871969 0.226063
        -0.409535 0.00904295 1.03483
        0.234789 -2.58036 -0.164627
        0.623933 -0.592584 0.180896
        0.863418 0.599759 -0.153576
        0.0117119 -0.954354 -0.770649
        0.0330178 -1.24216 0.0211408
        0.00838979 -1.61028 0.37819
        -1.34209 -1.56239 -0.911847
        -1.50381 -1.52774 -0.00717111
        -0.370909 -3.11789 0.533691
        -0.131652 -1.87638 0.0770978
        0.512185 -1.58582 -0.877013
        -0.111555 -1.58285 -0.56663
        0.220208 -1.61485 0.345005
        -1.27332 -1.32765 -0.708595
        -0.29197 -1.27416 -0.586537
        -0.491596 0.160174 -1.14631
        -0.339877 -2.96306 -0.0510871
        -0.233248 -0.833477 -0.177688
        -1.02161 -0.598567 0.0902943
        -0.319517 -2.05293 -0.907207