<?xml version="1.0" encoding="UTF-8" standalone="no" ?>
<VTKFile byte_order="LittleEndian" type="UnstructuredGrid" version="0.1">
  <UnstructuredGrid>
    <Piece NumberOfCells="0" NumberOfPoints="1764">
      <PointData>
        <DataArray Name="velocities" NumberOfComponents="3" format="ascii" type="Float32">
        0.496239 -0.823425 -1.48165
        -0.959546 -0.918156 -0.165716
        -0.618241 -1.39263 0.353872
        0.16111 -1.99402 0.365028
        -0.712885 -0.252807 -0.0781663
        -0.100293 -0.649644 -0.0987547
        0.134658 -2.58512 0.185801
        -0.399668 -1.02723 -0.458812
        1.50792 -1.912 0.68748
        -0.63085 -1.73947 -0.326411
        0.494748 -0.329983 -0.0400861
        0.279217 -1.67831 0.360126
        -0.264009 -2.34908 -0.53432
        -0.205395 -0.889679 0.46188
        0.582626 -1.99809 -0.0851161
        -0.504886 -1.34657 -0.83398
        0.638714 -1.19737 -0.272998
        0.207716 -1.4617 -0.512657
        -0.558998 -1.58393 1.16968
        -0.403292 -2.2668 0.125264
        -0.90403 -2.22726 -0.0259312
        0.0246909 -1.54045 0.271525
        -0.365478 -0.418167 0.344279
        -1.33711 -1.35849 1.10734
        -0.609568 -1.82511 0.100824
        -0.32887 -2.08307 0.0990981
        0.386898 -0.930524 -0.372078
        0.0367449 -1.95079 -1.22235
        -0.549552 -1.61915 0.302613
        0.457485 -1.12638 -0.239139
        -0.508911 -2.26669 0.679431
        -0.474563 -1.52506 -0.672788
        0.379415 -0.177792 -0.3884
        0.358416 -1.37001 0.539474
        0.381369 -1.67503 0.311016
        0.299614 -1.89208 0.0939431
        -0.204327 -0.925217 0.544232
        -0.965874 -1.2394 0.677594
        0.410795 -0.600407 0.489484
        0.149504 -0.517514 -0.0835323
        -0.488408 -0.501269 -0.244709
        -0.531322 -1.07073 0.309915
        -0.414895 -2.38961 -0.52988
        -0.263531 -1.40725 0.156539
        -0.282837 -0.429143 -0.120282
        0.627592 -2.40325 -0.0884014
        -0.26201 -1.77529 -1.30235
        0.494206 -1.4797 -1.04469
        0.151822 -0.924764 -0.0953707
        -0.262971 -2.48716 -0.757393
        1.07643 -1.27602 0.475778
        0.147141 -0.836953 -1.23219
        -0.0478129 0.124933 -0.60543
        0.0725996 -1.81994 0.114453
        -0.83031 -1.88189 0.199767
        -0.104215 -1.49509 0.623248
        1.0992 -2.31567 -0.790034
        -2.17549 -0.200133 -0.464451
        0.251213 -0.361828 0.0681572
        -0.773392 -2.16966 0.616876
        1.19145 -1.78703 0.905183
        -0.907123 -1.42013 0.649078
        0.0922935 -0.183648 -0.526063
        0.149054 -1.22495 0.13739
        0.0711108 -1.55279 0.138713
        1.29862 -0.870682 -0.671955
        -0.040429 -1.78674 -0.666082
        0.0635727 -0.637255 -0.471435
        0.56411 -1.21025 -0.134606
        -0.23 -0.239578 -1.02748
        -0.00197062 -0.864684 0.669175
        0.703722 -2.18296 0.330744
        -1.20608 -1.84647 0.900164
        0.465368 -0.732063 1.24768
        0.635913 -2.58731 -1.10685
        0.135133 -1.26106 -0.656733
        0.166493 -0.987677 -0.992468
        -0.0859499 -0.719785 -1.07529
        0.574243 -0.531229 -0.291236
        -0.246184 -1.20838 0.0964486
        1.15256 -0.880944 -0.216162
        0.60387 -1.28457 0.393011
        0.479458 -1.55072 -0.240089
        0.482722 -0.0435235 -1.54887
        0.383766 -0.47714 0.0880314
        -0.119266 -1.05044 0.705925
        0.539882 0.253769 0.356693
        -1.31986 -2.52193 1.28292
        0.199653 -2.33389 -0.531468
        -0.138581 0.256923 -0.0237855
        -1.01571 -2.43496 0.55346
        -0.153485 -0.857478 0.312797
        -0.678051 -1.16894 1.57745
        -1.14298 -1.33739 0.833673
        -0.429087 -1.5365 0.361071
        1.15906 -1.5358 0.0412452
        0.793688 0.667681 -0.680671
        0.428934 -0.973233 0.156881
        -1.32455 -1.20171 1.75623
        0.882616 -1.30764 -0.208696
        -0.782983 -1.0906 -1.45458
        0.621748 -0.830711 0.0868139
        0.763517 -1.59807 0.453528
        -0.688496 -1.11405 0.541462
        0.563388 -2.37609 -0.119335
        -0.700434 -1.67362 -0.146559
        0.603679 -3.28259 -1.19457
        -1.14029 -0.896239 -0.593044
        -1.17674 -1.78862 1.49385
        -0.244815 -1.59541 -0.912001
        0.0939629 -1.14308 0.743508
        0.45853 -1.07802 -0.415628
        -0.192102 -2.01255 1.74267
        1.51035 -1.47698 0.0147523
        0.412991 -1.43855 -0.129383
        0.718995 -2.25411 0.683884
        0.978942 -1.29547 1.69368
        0.0813111 -2.11472 -0.571487
        0.242506 -1.19654 -0.128171
        0.153791 -1.0275 0.195015
        -1.11308 -1.94597 -0.175974
        -0.253619 -0.56359 -0.624662
        0.282032 -2.57591 0.768335
        -0.264818 -1.65809 0.210327
        0.543123 -0.533817 -2.49846
        1.50119 -2.77718 0.943388
        -0.0450207 -1.77053 0.268527
        -0.421525 -1.69447 0.63011
        -0.522151 -4.00853 1.5536
        -0.0779292 -1.23615 -0.725228
        -1.58994 -2.53924 0.132432
        -0.469382 -1.56092 0.55773
        1.37945 -1.74828 0.136935
        1.30575 -1.86756 -0.214674
        0.470858 -3.06861 -0.87415
        0.21498 -1.95364 1.36284
        0.181935 -1.39114 -1.50384
        0.126547 -0.831938 -0.557671
        -0.462339 -2.32791 0.303981
        -0.604408 -0.563602 0.955418
        -1.01004 -1.48706 -0.243897
        0.0112757 -1.96718 0.306551
        0.459828 -1.54539 -0.532094
        0.0292496 -0.465115 -0.113837
        -0.277313 -0.803059 0.0241536
        1.24009 -1.07003 1.19742
        0.530386 -2.15909 -0.0904283
        0.146771 -1.48041 -0.509824
        1.11424 -0.882356 1.04039
        0.193648 0.238494 -0.635866
        1.00181 -1.37936 -0.510699
        0.415972 -0.776142 -0.0972967
        0.0260235 -3.46854 -0.62612
        -0.98925 -1.13946 -0.541577
        0.351021 -2.15091 0.349358
        1.24776 0.171515 -0.0737546
        -0.517418 -1.58555 0.634086
        -2.01297 0.407494 0.261279
        0.135574 -1.24365 0.322384
        -0.544403 -0.734885 -0.381206
        -0.800232 -0.0407026 -1.42163
        0.157819 -1.10725 -0.820935
        -0.283553 -1.43311 0.0980712
        -1.65156 -1.11326 0.835634
        0.375387 -0.831406 0.424498
        0.312121 -1.28471 0.643903
        0.622788 -1.17152 -0.461712
        -0.254575 -0.299083 0.689797
        -0.162947 -0.553861 0.632098
        -1.81484 -0.266652 0.14542
        -0.745608 -0.415594 0.687454
        -0.696347 -0.438398 0.195506
        1.9493 -1.02103 -0.35761
        0.662802 -0.847205 -0.047827
        0.368203 -0.488073 0.383961
        -1.23081 -0.243828 0.451868
        -0.477927 -0.0571709 -0.72407
        -1.08014 0.390956 1.91836
        -0.779227 -0.938909 0.560439
        -0.506908 -0.380995 2.19143
        -0.578234 -0.416915 -0.649382
        1.51317 -0.853548 -0.833085
        -0.940414 -0.827589 -0.0868845
        0.136643 -0.648824 0.551497
        -1.54961 -0.875686 -0.0762684
        0.10168 -0.446232 -0.772835
        1.02612 -0.0122787 2.08564
        -0.739537 -0.195459 -1.16407
        0.25609 0.661566 0.0832964
        0.675673 0.608403 0.863054
        -0.0146567 1.53762 -0.230714
        0.250665 1.32755 0.980152
        -0.257216 -0.111375 0.214843
        -1.54079 0.928983 1.05746
        0.479476 -0.258458 -0.594795
        -0.277936 0.225805 0.034297
        0.649788 0.62028 1.63911
        0.542616 -0.103022 -1.21655
        -0.687043 0.425932 1.18245
        -0.0743343 1.54719 1.92412
        0.0579765 0.337812 -0.0660298
        2.00291 0.0126649 0.548286
        -0.918757 1.72991 -0.169741
        -0.743441 0.312911 0.831972
        0.0418228 1.27003 -0.129151
        -0.0386416 0.939178 0.838924
        0.375629 0.615243 -0.309104
        0.0901919 1.1943 0.149097
        -0.0845973 0.469863 -0.930525
        0.563316 0.287743 -0.254318
        0.366984 -0.143498 -0.482278
        -1.05737 0.808128 -0.0594907
        0.204593 1.61813 -0.619947
        0.0802338 2.51749 -0.296691
        0.703646 1.44801 0.556347
        -0.753618 0.234291 0.114105
        -0.0226148 -0.514281 0.698658
        -0.289839 -0.378879 0.540051
        -0.10714 0.848458 -0.232148
        -0.0904668 1.20251 0.818597
        0.234525 0.258521 0.290338
        0.571658 0.584863 0.624113
        -0.335246 0.872436 -0.00362521
        0.553075 0.555972 0.569692
        -0.398977 0.918878 -0.212999
        -0.482462 0.586592 -0.78019
        -0.35207 0.813789 -0.136048
        0.745356 1.3921 0.0644095
        0.672297 1.38361 -0.146473
        1.16303 2.06236 1.19627
        0.929405 1.15151 0.169811
        0.0153197 0.678907 0.895849
        1.55989 2.44657 0.292833
        0.271499 0.170964 -0.53553
        -0.586489 0.693482 1.46355
        -1.42217 2.26917 -0.601338
        -0.493813 1.54064 0.449623
        -1.40134 1.69256 1.2084
        0.668533 0.923632 -1.12088
        -1.86931 1.8421 0.996445
        -0.89288 1.35473 -1.19622
        -1.17398 1.54258 1.12428
        0.560666 1.79051 -1.69295
        -0.134468 1.79618 0.535537
        -0.497955 1.74689 0.157471
        0.504367 2.19435 -0.13679
        0.205017 0.605911 -1.76112
        0.0472693 2.22382 0.257803
        -0.672884 0.454355 -0.851977
        -0.431762 2.1923 -0.90679
        0.278411 1.54946 0.123823
        -0.847809 2.60443 1.09044
        -0.31922 1.53311 -1.29573
        0.61698 0.546559 0.532454
        -0.179093 1.77432 0.52644
        0.402473 0.832105 -0.0320334
        0.0310674 1.50529 1.92615
        -0.111594 0.71239 0.229661
        -0.101627 1.07197 -0.883858
        1.59942 1.97124 -0.897455
        -0.212631 1.45039 -0.900901
        -0.59009 2.15169 -0.336532
        -0.395386 2.76369 0.474182
        -0.398513 1.84759 -0.765485
        -1.03522 2.16257 1.16395
        -0.00411282 0.982121 -1.09583
        -0.606755 2.24993 0.987152
        -0.329776 1.26122 -0.95654
        -0.133686 0.522455 -0.862455
        0.0518515 0.577547 -0.161569
        0.800727 1.79667 -0.448578
        1.11806 2.05215 -0.801748
        -0.705933 1.8842 0.274391
        0.0974035 1.4188 0.411688
        1.16106 0.418384 -1.19586
        0.549348 0.910601 0.753958
        -0.158534 1.24378 -0.210982
        0.204917 1.52646 0.0875058
        -1.40173 0.692289 -0.558472
        1.13636 2.01498 0.258883
        0.475887 2.1565 -0.794851
        0.372963 1.34414 0.666662
        0.569535 0.579452 -0.532152
        -0.756979 1.51829 0.578686
        -0.449092 1.06517 0.394007
        -1.60262 2.13016 -0.899129
        0.942575 1.32865 0.0615839
        0.00980612 1.48008 0.0992069
        -0.427188 1.98473 0.28975
        0.267691 1.68883 -0.266881
        -0.921794 1.40216 -1.22585
        -0.428151 1.61191 -0.261343
        0.181323 1.03226 0.988517
        0.993202 1.41207 1.05418
        0.870465 0.872684 0.166234
        -1.11365 0.558401 -0.389992
        0.853537 1.19193 1.27252
        -0.0359355 1.21105 0.155503
        0.18484 1.41091 -0.509315
        -1.75396 0.362982 -0.483155
        -1.40247 2.43742 0.767004
        1.53544 1.67996 0.0822413
        -0.339151 3.32351 0.658951
        -0.394951 0.960174 -1.10495
        0.152058 1.13958 -0.166901
        0.569535 2.49174 -0.166437
        -1.09874 3.79826 -0.637038
        0.560814 -0.0635492 0.666355
        -0.850041 2.08656 -0.19374
        0.147292 2.91384 -1.11712
        0.13668 1.92276 -0.450431
        0.0879722 1.3323 1.07108
        0.179293 1.94624 0.608776
        0.138318 2.12766 0.0729171
        -0.46868 0.42723 0.404102
        2.22888 1.47994 -1.6785
        -0.495102 1.84589 -0.00662347
        0.632544 1.6824 0.19407
        -0.371519 2.09653 -0.20059
        -0.187679 0.807723 -0.215045
        0.27813 1.29505 0.133815
        0.422196 1.79144 -0.0957306
        0.164593 2.4329 0.788804
        0.166776 0.617576 -0.8322
        -0.215988 1.32786 0.755488
        -1.03919 1.40689 -0.199466
        -0.467573 -0.259338 0.0559332
        -0.287433 0.280393 0.107991
        -0.0381968 1.44385 -0.206893
        -0.857487 1.04585 -0.408892
        0.0152712 1.56025 0.270037
        0.303494 0.961834 -0.746503
        -0.0794356 1.82117 0.206284
        0.242347 1.09907 -1.07244
        -0.123421 0.474509 -0.945616
        0.506755 1.71749 0.480205
        0.547814 1.84813 1.154
        0.150899 1.06227 -0.227904
        -0.162783 1.35059 -0.6439
        1.40756 1.4962 0.324804
        0.39222 0.65025 -0.411819
        0.46718 1.47323 -0.214568
        -1.2063 1.35069 -0.740305
        -0.050581 0.275483 -0.689063
        -0.448637 2.01923 -0.416501
        -0.634917 2.17347 -0.0777047
        0.373548 0.114475 0.187936
        0.0826577 0.843548 -0.513109
        -0.599492 1.56432 -0.592599
        -0.271659 0.980294 0.738928
        1.13712 2.3906 0.36275
        0.248878 1.05879 0.0446678
        0.221888 0.921546 -1.22243
        -0.469117 0.719922 -0.244399
        0.628521 1.09834 0.893571
        0.944724 1.73454 -1.16381
        0.758623 1.41251 -0.602123
        0.378469 1.0229 1.04935
        0.437129 1.12967 -0.32661
        0.0938016 0.738216 -0.557186
        0.33683 1.95055 0.205401
        0.167946 1.68447 -1.19796
        -0.490023 -0.986648 -0.0947221
        0.530829 1.3914 0.220251
        0.5836 2.10975 0.142347
        -0.0769745 1.1556 0.610864
        -0.191381 0.536874 0.00807411
        -0.00686478 1.14376 -0.412071
        -0.606377 0.508413 -1.53756
        0.09897 1.50905 -0.678296
        0.00723823 2.47184 0.479803
        -0.285318 1.72321 0.260529
        -0.825953 1.60082 0.00245657
        -0.885833 1.55185 -0.259106
        0.285309 2.0107 0.173436
        -0.719031 1.48141 0.0972574
        -0.0704668 0.925724 -0.795669
        -0.3964 1.99872 0.982712
        0.189237 0.624091 0.267444
        0.553051 1.18637 0.29477
        -0.00394164 1.01704 -0.0446245
        -1.50533 0.474374 0.223566
        -2.14653 1.69191 0.240969
        -0.872747 1.86925 -0.609056
        -0.782487 1.91844 0.824606
        -1.36386 1.10835 -0.786797
        -1.17349 1.61635 -0.50911
        -0.563408 1.38658 -0.159437
        0.576955 -1.5903 0.369041
        -0.577992 -2.02474 -0.572589
        -1.12126 -1.21964 -0.607641
        0.160869 -0.627963 -0.812247
        -0.572821 -1.2804 -0.212554
        -0.11412 -0.633128 -0.138574
        0.397882 -0.844164 -0.273059
        -0.0921436 -1.55328 -0.711863
        -1.3559 -1.3665 0.282062
        -1.15656 -0.844564 0.0840343
        -0.591811 -1.14449 -0.336939
        -0.0677445 -2.02582 -0.388458
        0.867898 -0.453935 -0.387738
        -0.87062 -1.6776 -1.49952
        1.12581 -2.14016 0.127923
        1.7441 -1.28414 -0.772818
        0.732301 -2.00847 0.720964
        -0.691701 -0.709163 -0.19682
        -0.836657 -0.634643 0.271609
        1.13498 -0.481423 0.00398091
        0.726218 -0.958234 0.168437
        -0.238226 -0.6312 0.628738
        0.218841 -0.789227 0.00395798
        0.440181 -1.31434 -0.407662
        0.965467 -1.56998 -0.727464
        -1.27305 0.269837 0.261132
        -0.382404 -1.92259 0.164998
        1.28121 -0.563105 -0.108134
        0.236897 -1.29508 0.267523
        -0.530846 -1.42199 -0.666845
        0.565527 -0.623987 0.190255
        1.09976 -1.69726 0.713154
        -0.811803 -0.366435 0.846351
        -0.690399 -1.467 0.706597
        0.45312 -1.06204 -0.75088
        -0.335129 -1.69828 0.149724
        -0.0675463 -2.54719 0.199874
        0.579409 -1.72688 -0.100871
        0.723205 -1.09159 -0.0448562
        -0.139419 -1.17737 0.545505
        0.216203 -1.04696 -0.555738
        0.902092 -1.82155 -0.695556
        -1.36172 -0.817054 -0.317221
        -0.754397 -1.68156 -0.985997
        0.355619 -1.27831 1.81174
        -0.452498 -0.97328 0.257951
        -1.03055 -1.46768 -0.468564
        -0.236181 -1.3763 0.247181
        -0.574946 -0.384546 0.640494
        -0.800037 -1.88513 1.48145
        1.03096 -1.80331 0.482566
        -0.0638017 -1.42006 -1.14448
        0.344173 0.216502 -0.36909
        -0.755584 -0.880714 0.187493
        -0.146617 -2.41937 0.192231
        -0.372905 -0.782455 -0.695502
        -0.251717 -2.54228 -1.128
        0.516193 -2.90645 -0.863443
        -0.971355 -1.05167 0.819631
        -0.111741 -1.79704 0.953631
        0.683549 -1.0552 -1.42738
        1.9407 -0.69731 -0.341331
        0.103391 -1.01903 -0.151052
        0.0865256 -0.993382 -0.740416
        -0.378809 -1.20042 -0.823748
        -0.117558 -1.21206 1.54408
        -0.772543 -0.972886 -0.333869
        -0.985301 -2.78814 0.1812
        -1.03862 -0.685889 -0.216793
        0.276176 -2.14239 0.138691
        0.939862 -0.268504 0.558785
        0.456796 -1.11764 -0.226924
        0.117012 -1.33275 1.42227
        0.687708 -0.804756 -0.165816
        0.144728 -2.1151 -1.29175
        -0.328148 -0.72985 -1.02368
        1.44223 -1.39691 -0.0476497
        1.05051 -0.882959 -1.10993
        0.0920524 -1.26757 0.501783
        -1.26788 -2.65578 -0.124876
        0.365883 -0.952433 1.42249
        -0.362542 -1.54675 -0.599374
        -0.108738 -1.62606 -0.408668
        0.747162 -1.30797 1.61834
        0.609328 -2.3294 -1.54037
        -0.740951 -1.83559 0.325533
        -0.152258 -1.27081 0.530179
        -0.447364 -0.907704 -0.411878
        -0.0615725 -2.72403 -1.25847
        -1.11074 -0.613602 0.110942
        -0.055588 -1.3657 -0.224078
        -0.250222 -1.29185 -0.605027
        0.159686 -2.48087 -0.573799
        -0.246412 -2.14947 0.433529
        -0.382075 -1.36867 0.821418
        0.583546 -1.67604 1.15546
        0.0685063 -1.8539 -0.453721
        -0.224467 -0.883538 0.317198
        -0.386528 -1.7134 -0.123858
        0.230251 -0.884758 -1.06057
        0.689817 -1.94571 0.752611
        0.261839 -0.511286 0.196391
        -0.740292 -1.35746 1.24435
        0.948779 0.65144 0.771508
        0.51661 -1.03198 -1.56757
        -0.572697 -0.912552 -1.09957
        0.616514 -0.834779 -0.575322
        0.63187 -1.83342 -0.855627
        -0.434918 -1.07353 0.163394
        -0.355902 -0.0406415 1.11521
        0.106066 -2.31544 0.19086
        0.691261 -1.51589 -1.52781
        -0.0444724 -1.41647 1.35325
        0.532727 -1.01988 -0.0473553
        -0.499503 -1.58946 -0.343867
        -0.610218 -0.89047 -0.238573
        -0.495638 -1.03348 -0.0734498
        -2.03805 -2.52917 0.414213
        0.245699 -2.16158 0.138583
        -0.134975 -2.48045 0.408889
        1.1661 -2.14676 0.180561
        1.57225 -0.464873 0.188769
        0.25479 -0.463651 -0.516027
        -0.394093 -1.67858 0.687717
        1.26332 -1.54205 0.0476298
        -1.07101 -0.874794 -0.259559
        -0.966151 -1.95217 -1.05256
        -0.108148 -1.71484 1.1135
        -0.959264 0.1369 -0.853317
        0.30413 -0.697108 -0.665369
        0.450415 0.305522 -1.518
        0.66319 -2.2293 -0.905987
        1.327 0.505665 -0.902474
        -0.404334 -0.867515 -0.621448
        0.547205 -1.05801 0.0975716
        -0.130046 -0.959838 -0.731986
        0.628973 -1.27168 0.543289
        -0.921054 -1.08175 0.054692
        1.21238 -0.494062 1.00413
        -0.510601 -0.87411 0.0976779
        -0.642355 -0.11401 -0.406122
        -0.388597 -1.62042 -0.359464
        0.780526 -1.9303 -0.170152
        0.411825 -0.738036 0.668493
        -0.801998 -1.74634 -0.705264
        0.86936 -0.986331 0.324459
        0.338559 -1.86218 -0.125965
        1.19574 -1.41223 -0.393692
        -0.307628 -2.23937 0.489537
        -0.362611 -1.89479 0.943492
        -0.0311424 -1.03794 -0.492204
        0.084235 -1.60033 0.211019
        0.542429 -2.3485 0.581986
        0.618702 -1.20842 1.88235
        1.20081 -1.33815 -0.918458
        -0.647151 -1.09893 -0.00978523
        0.257738 -0.784711 0.346431
        0.692447 -1.09208 -0.453175
        0.493934 -1.42099 1.16322
        -1.07848 -0.132328 0.448635
        0.287568 -0.140433 0.698585
        1.04197 -0.49978 1.59565
        1.23872 -3.35026 0.112137
        0.923407 -1.73829 0.0611806
        -0.889298 -0.598292 -0.819355
        -0.540009 0.50795 -0.613529
        -0.274741 0.13377 0.384871
        -0.696941 -0.289791 -0.0693168
        -1.21829 -1.06748 -0.0648857
        -0.683401 0.527261 -0.938927
        0.721644 -0.972369 -0.99742
        0.157961 -0.10304 0.354615
        0.319787 -0.369783 -0.597768
        -0.0409767 -0.364571 0.0019999
        -1.13396 -0.80133 -0.560216
        0.738558 -2.08256 -1.26021
        -2.03444 -1.38264 -0.161244
        -0.152085 -0.937411 0.181534
        -0.840363 0.3409 0.454712
        -1.51379 -1.28172 0.173532
        1.25585 -1.02065 -0.847561
        -0.390931 -0.900326 0.241732
        0.046338 -1.11803 -0.884474
        0.107815 -0.382445 0.071811
        -0.593265 0.573531 0.230537
        1.24895 -1.27252 0.76145
        -0.779769 -1.54118 1.09541
        1.07131 -0.480639 0.341571
        -0.938409 -1.00616 1.27766
        -0.239522 0.576547 1.07125
        -0.0368806 -0.395478 -0.166905
        0.145818 -1.02939 -0.271548
        -0.143351 0.374363 -0.198762
        0.386263 0.394268 0.300507
        0.8666 0.0593399 0.249346
        0.866958 -0.211493 0.134733
        0.0987696 0.227399 0.644429
        -0.445094 0.43808 0.509352
        1.19081 1.67031 0.454894
        0.480637 0.303327 -0.805289
        0.113642 1.16621 1.79275
        0.57223 0.272406 -1.20464
        0.440656 0.620729 0.0497901
        -0.682144 1.37456 0.166388
        0.957733 1.42866 -0.118666
        -0.052248 0.0731836 0.739817
        -0.710325 0.311366 -0.658265
        -0.197321 0.872307 0.484589
        0.303732 1.33867 0.315876
        -1.036 0.802563 0.748291
        0.168664 0.421018 -1.77752
        1.59122 2.03832 -1.4646
        -0.611514 1.87178 -0.432492
        -1.13683 1.21645 -0.832241
        -0.314236 1.42507 0.665624
        -0.49282 1.20401 0.266957
        -0.664291 1.09792 -0.434865
        -0.506296 2.18071 0.413155
        -0.379966 -0.526054 0.883292
        0.42823 1.80478 -0.309974
        0.189134 0.31923 0.648082
        0.361484 1.35886 0.110783
        -0.209489 0.0139679 -0.433521
        0.594637 1.35172 -0.519783
        -0.640568 1.49286 0.29807
        0.985718 2.25245 0.114046
        0.176003 2.25138 -0.416202
        -0.0075554 3.54203 0.183891
        0.10924 1.31464 -0.314418
        -0.290489 1.39995 0.331515
        -0.312822 0.159641 -0.0190987
        0.116137 1.51193 -0.303459
        -0.356513 1.87544 -0.239664
        0.129502 2.49489 -0.0945732
        -0.492111 1.35895 0.0842709
        -0.85913 1.75986 -0.244746
        0.569456 1.51842 1.00345
        -0.0515966 2.66681 0.281814
        -0.164582 0.613417 1.10226
        -0.131229 1.94496 -1.01233
        1.7291 -0.0900626 -0.594014
        0.0645878 1.14883 1.2382
        -0.0368622 1.437 0.678946
        -0.206747 2.51464 0.110946
        0.383209 1.54697 0.0450684
        -0.503884 1.59881 0.330697
        0.426027 1.9897 0.521132
        0.908483 1.56226 0.853251
        0.1493 0.625327 -0.0881738
        0.316547 0.823997 1.22323
        0.83463 2.86031 -0.229672
        0.136011 1.5771 0.172488
        -0.952543 1.43744 0.925383
        -0.0972227 0.271233 0.222201
        -0.918753 0.184332 0.387158
        -0.363384 1.13705 0.0778547
        -0.284773 1.39645 0.0555893
        -0.928263 1.32515 -0.274069
        -0.782547 0.397698 -0.22816
        -0.205094 1.52039 1.09361
        -0.0898194 0.298659 -1.52082
        0.251865 0.684818 0.00501356
        -0.759628 1.84555 -0.406889
        -1.86784 0.906221 -0.255724
        0.428708 1.71401 -0.902752
        -0.861676 1.08231 -0.150787
        -0.940371 1.80914 -0.340891
        0.818253 0.0720843 0.272643
        0.432375 0.844119 -0.120417
        -0.613384 1.12248 -0.0729438
        -0.676306 2.70412 -0.00244295
        0.706768 1.77543 0.581469
        -1.73987 0.757833 0.0240694
        -0.907984 2.38047 -0.350065
        -0.937502 1.93941 -0.744089
        -0.992083 3.29053 0.97848
        -0.892221 0.725575 1.0638
        0.683339 1.85541 0.0226177
        0.147191 1.71214 0.233074
        -0.207625 2.41935 -1.10086
        -0.897817 0.757237 1.68046
        -0.316716 2.07081 0.704977
        -0.172063 1.01391 1.07516
        0.282174 1.61885 1.03706
        -0.509299 2.07532 -1.37735
        -0.41563 1.07766 0.0954086
        0.10158 0.571944 -1.93641
        -0.607185 1.47065 0.247231
        -1.00096 3.53943 0.230771
        -0.674637 1.37269 -0.501976
        -0.847956 0.912641 -0.499189
        0.811946 1.94644 -0.250141
        -0.733935 1.53918 1.49966
        0.143476 1.51131 0.168141
        -0.436618 0.431416 1.02526
        0.434233 1.43904 0.337454
        0.0343179 1.38187 0.390828
        -0.440279 2.07671 -1.13385
        0.999163 1.28856 0.816942
        -0.950556 -0.226535 -0.378412
        0.774375 2.03933 0.367532
        1.42834 2.82161 -0.380214
        0.473579 0.342298 -0.407451
        -0.911647 1.44329 0.357057
        -0.0398914 1.97354 -1.06961
        -0.264797 1.72937 0.106056
        0.613394 2.89126 0.324373
        0.124944 2.23055 -1.09676
        -0.0326028 0.80894 0.276529
        0.547331 2.73087 -0.546435
        -0.327672 0.577015 -0.612681
        0.266757 0.970247 0.0404351
        0.340248 1.32172 0.32589
        -1.75705 1.63687 -0.370937
        0.182109 2.18964 0.78615
        0.58853 0.906849 -0.624549
        1.28 1.12565 -0.529064
        0.102438 1.88516 0.276516
        -0.729563 1.33078 0.127315
        -0.153329 1.64249 0.0871395
        -0.525519 1.40546 -0.0864448
        0.425325 1.0046 -0.57719
        0.367396 0.513261 0.180728
        -0.127692 0.564737 0.205828
        0.0991914 0.614639 -0.282031
        0.01922 0.689508 -0.257222
        -0.455958 0.717611 0.5752
        -0.373944 0.155252 -0.643989
        -0.36689 1.14129 -0.424516
        -1.44761 1.71959 -0.249815
        0.225698 0.330816 -0.381249
        -0.489879 1.90033 -1.10075
        0.502276 2.29091 -0.558371
        -0.147251 0.647586 -0.353925
        -0.0505578 1.69498 0.307289
        0.313901 2.2572 -0.900207
        0.500263 -0.10452 0.483421
        0.728614 2.61572 0.973448
        1.32048 2.49737 0.0794268
        -0.19756 -1.42116 0.167662
        0.49831 -1.46999 -0.404875
        -0.271139 -1.28148 0.841676
        -0.723584 -1.96858 -1.52104
        -0.048829 -1.72498 0.365824
        0.579265 -1.11043 0.387584
        0.0473335 -2.29154 0.470548
        0.610378 -1.49284 -0.448965
        -0.755747 -2.40751 -0.833875
        0.953029 -1.89253 0.197244
        -0.799517 -1.96404 0.279952
        0.77678 -1.70107 -0.0269529
        0.0346571 -0.194078 0.00284827
        1.62576 -0.491764 0.249033
        1.14806 -1.59541 0.732368
        -0.0980759 -1.85509 -0.850327
        -1.44734 -0.898233 -0.140026
        0.77508 -1.08839 0.315743
        -0.0462372 -0.724892 -0.204875
        0.138617 -0.490109 -0.139964
        -0.239296 -1.24793 0.546009
        -0.559438 -3.21829 0.187818
        -0.442911 -0.699342 0.0831308
        -0.247505 -1.36465 0.691458
        0.475496 -0.229608 0.0941313
        -0.075009 -1.64278 2.22012
        -0.719505 -2.50103 -0.520103
        0.025161 -1.34241 -0.230591
        0.638984 -0.855657 -0.219884
        1.67478 -0.883921 0.345609
        0.723096 -1.2549 -0.254877
        1.69277 -2.29525 1.65672
        -0.998587 -0.939661 -0.249569
        0.893824 -1.45408 -0.291219
        0.154105 -0.907484 0.00518986
        -0.218915 0.108513 -0.42913
        -0.720755 -0.112667 0.764904
        -0.328974 -1.68857 -0.20729
        -1.27763 -0.345288 -0.516036
        0.0574695 -2.44823 -0.422408
        -0.139612 -1.31798 -0.0514875
        -0.420963 -1.3836 0.690813
        0.91889 -1.22816 -0.166324
        0.147101 -0.712531 -0.111938
        -0.239165 0.0809533 0.79217
        0.459106 -1.31471 -0.207235
        -1.19895 -1.98868 -0.948456
        -0.547331 -2.73087 0.546435
        -0.607888 -1.25021 -0.738015
        -0.654409 -1.64016 0.642003
        -1.83502 -1.31474 -0.292283
        -0.29801 -1.77515 0.366792
        -0.17113 -1.92453 0.206307
        -2.10607 -2.19741 -0.741093
        0.743699 -1.30865 -0.549773
        0.0301409 -0.830512 0.199583
        -0.0989229 -0.910545 -0.457331
        0.735114 -1.53221 0.640035
        1.06112 -1.84852 0.246729
        -0.153444 -1.16082 -0.730837
        -0.124111 -0.140376 -0.166681
        0.265765 -1.53678 -0.0800331
        1.01858 -1.75142 -2.09015
        -0.476688 -0.317496 0.0330882
        -0.384452 -0.781818 0.265702
        -0.09157 -1.21741 0.00951798
        0.594536 -1.60191 0.00107229
        -1.48745 -1.73363 0.247331
        -0.413493 -0.505075 0.141121
        0.153525 -0.50796 0.18622
        0.192951 0.277179 0.536259
        0.966953 -1.04049 0.269667
        -0.514188 -0.635463 0.0981183
        -0.160994 -3.36901 -1.32084
        0.0203147 -1.95564 -0.0946487
        -0.133483 -1.07661 0.644809
        -0.431288 -1.42787 0.345914
        -0.0830705 -2.18963 0.332183
        -1.32928 -1.33099 0.262789
        0.0121177 -0.659188 0.413984
        -0.645473 -0.323124 -0.123777
        0.45419 -1.56788 -1.09322
        -0.614194 -1.51624 -0.727976
        -0.240152 -1.41047 -0.248339
        -0.264659 -1.52403 0.698994
        1.03314 -2.29849 -1.67612
        -0.132638 -1.42779 -0.398394
        -0.359379 -1.33661 -0.368735
        -0.865695 -1.31394 0.888041
        -0.610566 -0.266054 -0.516587
        0.203582 -1.5767 -0.240204
        0.752323 -1.72878 0.0620753
        1.10769 -1.92819 0.962475
        -0.755529 -1.98781 -0.23831
        -0.223643 -0.687596 -0.0448272
        -0.555814 -1.95216 0.223039
        0.29628 -1.03759 -1.28588
        0.251667 -1.17506 -0.165564
        2.20376 -2.05864 0.151936
        -0.774262 -2.24335 -0.845368
        -0.269331 -1.12578 -0.487816
        -0.363735 -1.91813 -0.244921
        0.215627 -0.478108 -0.049709
        -0.483497 -0.301132 0.718236
        -0.0423062 -0.548065 -0.0892081
        0.743834 -1.70994 -0.0686791
        0.818393 -2.14068 0.503807