<?xml version="1.0" encoding="UTF-8" standalone="no" ?>
<VTKFile byte_order="LittleEndian" type="UnstructuredGrid" version="0.1">
  <UnstructuredGrid>
    <Piece NumberOfCells="0" NumberOfPoints="1764">
      <PointData>
        <DataArray Name="velocities" NumberOfComponents="3" format="ascii" type="Float32">
        1.14465 -1.45682 -0.696785
        1.32474 -0.879494 0.075622
        0.0357964 0.443393 0.6063
        -1.28913 -1.00418 -0.114192
        0.0860961 -1.33443 0.155301
        1.3936 -3.07864 1.19555
        -0.125377 -1.54123 -0.163334
        -1.5294 -0.999927 0.0707929
        0.772099 -1.89841 0.418607
        -0.548786 -1.26838 -0.401206
        0.227408 -0.490266 0.343193
        0.187073 -1.06658 -0.644595
        -1.02277 -0.06804 -0.0183633
        -0.341269 -2.16847 -0.185172
        0.053018 -0.925984 -1.34657
        -0.845487 -2.3677 -1.03989
        -0.73773 -1.09827 -0.631784
        -0.113942 -1.55136 0.0672448
        1.53283 -1.20255 1.05886
        0.144887 0.0035463 -0.774079
        -0.125125 -0.354285 -0.24817
        0.429253 -0.99521 -0.740693
        -0.361708 -0.934572 0.969731
        -0.157688 0.313186 0.325994
        0.0450703 -1.26027 0.869587
        -0.287904 -1.02819 -0.592512
        0.294516 -1.05592 -0.0710541
        -0.164039 -0.754195 0.883178
        -0.466521 -1.56143 -0.470544
        -0.518239 -1.31473 0.0258338
        0.678158 -1.18549 0.0200814
        -0.714718 -1.90475 -0.0303618
        1.24107 -1.31883 0.0633629
        -0.373782 -1.91175 -0.16292
        0.329388 -0.344262 0.3443
        0.968227 -1.60871 -0.0890263
        0.242609 -1.70234 -3.14471
        0.402153 -1.18291 -0.372688
        -1.14692 -0.952553 -0.810721
        0.709104 0.195509 0.0657388
        0.581937 -2.13364 1.23867
        0.657287 -1.04858 0.153145
        -1.1841 -2.19171 0.107756
        -0.795378 -1.30068 0.170279
        -1.09269 -1.34659 0.743592
        0.807587 -2.55975 0.815042
        -0.777839 -0.720304 0.273332
        -0.240393 -2.66392 1.43397
        -0.0505262 -1.02204 -0.348749
        0.864928 -1.13848 -0.250066
        -0.514043 -2.73881 -0.518475
        0.213455 -1.95169 0.0195043
        -0.463801 -0.759469 0.233539
        -0.0283269 0.286485 1.54029
        -1.11238 -0.950677 -0.821743
        -0.553365 -0.848852 0.872881
        0.00995107 -1.27156 -0.40204
        0.377864 -1.38239 0.510171
        -1.89438 0.226778 0.221157
        -1.40849 -1.22382 -0.058798
        1.71919 -1.47225 -0.834246
        0.878372 -1.06817 0.613479
        0.776697 -1.8271 -0.298235
        0.170065 -1.84458 -0.295198
        -0.11954 -1.08898 -0.266677
        -1.01378 -0.754148 0.248791
        -0.840748 -1.35909 1.00021
        0.389674 -1.20587 -0.257818
        -0.19616 -2.32084 -0.0390132
        0.271645 -1.89507 0.0937559
        0.826715 -0.654568 0.821561
        -1.04175 -2.05198 0.333218
        0.293639 -2.00623 0.48503
        -1.03244 -1.20939 0.274563
        0.169925 -0.178438 0.448357
        0.49697 -1.21302 0.589155
        0.619521 -0.645285 0.189861
        -0.43763 -2.06372 0.124682
        0.00373248 -1.60449 0.285785
        1.35019 -1.61697 -0.390155
        -1.27075 -0.843846 0.0955318
        0.373326 -2.25578 -0.539092
        1.19873 -1.92977 -0.577244
        0.669668 -1.72758 1.0178
        -0.997349 -0.888797 -0.0182651
        -0.596137 0.431795 0.0143975
        -0.566747 -2.36157 0.637765
        -0.71263 -1.17642 0.0145193
        -0.568868 -0.659126 -0.12223
        0.612546 -0.810313 0.148979
        0.420986 -1.15761 -0.200069
        -1.04875 -0.939973 0.640673
        -0.252532 -2.11775 -0.757895
        0.554556 -1.14836 0.260876
        -0.478138 -1.30442 -1.52662
        0.300942 -1.66286 -1.55122
        -0.566181 -0.663985 -0.242677
        -0.776813 -0.613893 -0.746014
        0.299796 0.0527323 -1.08933
        0.182575 -1.25764 -0.547025
        1.10456 -1.21638 0.751059
        -0.141044 -1.38932 0.0383554
        0.0326884 -1.09567 0.0578331
        0.00538497 -0.99745 -0.38889
        0.77009 -1.29489 -0.6142
        0.248347 -0.72513 0.414068
        1.36402 -1.0382 0.477829
        -0.133464 -0.943943 0.168338
        -0.324993 -0.00587191 -1.37681
        1.15241 -0.157203 -0.527957
        -2.17618 -1.75089 -0.326982
        0.0573261 -1.00167 0.0926674
        1.15426 -1.54488 -0.966353
        -0.789948 -0.246047 0.82549
        -1.30758 -0.751056 0.393806
        -0.155496 -0.9853 0.0221181
        0.166152 -2.08244 -1.23787
        -0.587601 -1.29329 -1.10711
        0.149448 -2.53379 0.237458
        0.218083 -1.09622 -0.054621
        -0.67405 -1.52097 0.212751
        0.490961 -1.50816 -0.247124
        0.671816 -1.96526 -0.153127
        -0.336547 0.226873 0.587392
        -0.728698 -1.62849 1.23776
        -0.505234 -0.897495 1.07376
        0.731005 -1.02071 -0.814047
        0.208696 -2.35612 0.338291
        0.507007 -0.243588 -1.37471
        -1.12247 -1.65819 0.571007
        -1.14078 -1.02986 0.416349
        0.998566 -0.83361 0.315414
        -0.31649 -1.42822 0.686298
        -0.769798 -1.98595 -0.0114613
        1.09197 -3.1012 -0.20468
        0.560726 -1.37126 1.44922
        -1.01199 -1.90197 0.18361
        0.39786 -1.17642 -0.715646
        -0.0272542 -0.746287 -0.612225
        1.08519 -2.07565 0.64979
        1.33641 -0.857376 -1.26061
        0.185433 -1.80138 -0.263529
        0.310436 -2.25099 -0.409159
        0.812418 0.110202 -0.0919569
        -0.335999 -1.65412 1.30091
        0.713751 -0.717557 -0.726781
        -0.720445 -1.36015 -0.581461
        -1.11318 -1.95631 0.278802
        -1.43895 -0.689327 0.919797
        -0.884725 -1.66526 -1.18266
        -0.988027 -0.893848 -0.557359
        0.347315 -0.881389 0.134313
        0.995237 -1.1036 -1.20142
        0.506523 0.109389 -1.17299
        -0.357904 0.0410611 -0.294606
        -0.0840147 0.142685 -0.828239
        -1.14594 -0.252975 -0.333247
        0.330235 -0.603576 -0.437348
        0.372158 -0.452893 0.511703
        -0.326038 -0.381252 -1.31185
        -0.149096 -0.721226 -0.0730794
        -1.0777 -1.16443 -2.06141
        -0.913279 -0.115346 -1.03945
        -1.58907 -0.667029 -0.95986
        1.05714 -0.552662 -1.03319
        -0.995875 -0.674027 0.433172
        0.0132015 -0.76889 0.104869
        -0.0371604 -0.0875127 -0.053611
        -3.27246 -1.44813 0.988159
        -0.0866674 -1.52375 0.340929
        -0.327977 -0.718073 -0.276432
        0.698651 -0.300372 1.22718
        -0.427904 -0.0883515 -0.020226
        -0.688495 -1.7513 0.213659
        -0.568879 -1.29326 -0.535281
        1.22795 -1.10171 1.04744
        1.26955 -1.08584 -0.829794
        -0.426543 -1.40045 0.445039
        -1.08475 -1.48005 0.0928285
        -0.84885 -0.187101 1.23108
        -0.965027 -0.135298 -0.69922
        0.96733 -2.64931 -0.00249046
        -0.942237 -0.545439 0.044613
        0.33193 -0.476471 1.08705
        -0.544995 -1.17274 0.980924
        0.521653 -0.270068 0.945023
        1.02016 -0.859268 0.0317411
        0.626023 -0.458126 -0.150695
        1.01401 -0.991804 -0.0371979
        0.523507 1.44929 -0.246204
        0.213562 1.06366 -0.728381
        0.319223 1.23637 0.465979
        0.131331 0.603897 0.0540499
        0.77654 0.337918 -0.143055
        0.566595 0.674708 0.155113
        0.0736664 0.875724 -0.504523
        0.596482 1.63823 0.455988
        -1.05691 0.00815649 -0.77103
        -0.925262 0.446894 0.333313
        -0.751122 1.55618 1.79281
        -0.848029 0.0387572 -0.176326
        0.247507 0.655223 -0.798923
        0.0996919 1.76577 -0.272479
        -0.250163 1.22899 0.77507
        0.0925275 1.17295 0.63626
        0.903411 1.3529 -0.372864
        -1.91102 -0.25614 0.542966
        -0.324043 0.578958 -0.368759
        0.663873 -0.30153 1.14075
        -0.215532 1.01531 0.456923
        0.246197 2.44506 -0.619201
        0.215435 1.84611 0.492819
        -0.282713 0.145744 -0.35115
        0.877892 1.6286 -0.411302
        -0.515719 2.25317 -0.657752
        -1.0978 1.67735 0.467364
        -1.37519 1.93088 0.342932
        -1.67831 1.95303 -0.0216237
        -0.202838 3.15748 -0.00475484
        -0.269872 0.699905 0.397648
        0.366997 0.0916497 -0.54484
        1.02398 3.27977 -1.25763
        -0.237324 1.39238 -0.00383826
        -0.220752 2.02432 -0.470438
        -1.32296 1.34046 -0.999213
        -0.140732 0.748368 0.732097
        -1.24988 1.56228 -0.100778
        1.24522 1.67092 1.01085
        -0.487671 1.77454 0.0453499
        -0.57509 1.64591 0.0314489
        -0.903025 1.44737 -0.329695
        -0.360917 1.1599 1.91405
        -0.214898 2.23786 0.101205
        -0.45285 0.559914 -0.504445
        0.312418 0.82963 0.904322
        0.222408 0.805662 -0.537534
        -0.475483 1.72299 0.943121
        -1.09134 1.57268 0.993908
        -0.173843 0.808727 0.00261278
        0.346763 2.01498 -0.405986
        -0.167127 3.21336 0.200924
        -0.416739 2.05424 0.963542
        0.904479 1.983 -0.93447
        1.5311 0.773132 -1.2459
        0.871387 1.85888 -0.637755
        -1.0371 1.34336 0.342634
        0.446682 2.26992 -0.231268
        1.55329 1.76873 0.015406
        -0.353583 1.34849 0.812435
        -0.248759 0.978473 -0.54462
        -0.0441338 1.78255 -0.0948591
        0.426943 0.844024 -0.309339
        0.144023 1.20437 -0.477124
        0.121881 1.2886 0.0190286
        -0.43698 -0.136032 1.6223
        0.84835 1.32519 0.599374
        0.0127606 1.00035 0.200833
        0.442759 0.258464 -0.0214978
        0.0379053 0.32437 -0.0998132
        0.680613 1.49147 0.306446
        -0.668387 0.212518 0.0995268
        1.01369 2.36386 -0.843314
        0.0125433 2.39666 -0.983442
        -0.536127 2.046 -0.625623
        1.12794 1.64833 0.13247
        -0.238667 0.715677 -1.01615
        -0.298828 2.28878 1.17224
        -1.04661 0.610759 0.258589
        0.362102 2.00352 -1.24203
        -0.751944 0.942973 -0.82845
        -0.0807394 1.52038 -0.605686
        -1.06265 0.880458 0.699831
        -0.152199 2.54481 -1.13602
        -0.357123 0.842975 -0.91161
        0.572979 2.06234 0.305074
        0.273578 1.02671 0.105634
        -0.946046 2.18794 1.14994
        0.237817 0.433723 -0.649271
        0.858579 1.03205 0.0345178
        -0.597746 2.27535 0.370057
        0.502656 1.07563 0.87934
        0.374481 2.18381 -0.415183
        0.81096 0.504812 -0.713964
        0.0236632 3.8548 -0.959678
        0.311468 0.325525 -0.414452
        -1.25384 1.05123 0.129371
        0.928937 0.257885 0.528033
        -0.289582 1.28356 -1.28813
        -0.30236 2.12591 0.149522
        0.124512 0.584336 1.76757
        0.329562 2.82244 0.439011
        -0.0103639 1.61065 0.859232
        0.674285 1.73142 -1.06592
        0.113996 0.835285 -0.19631
        -0.133735 1.89567 0.993178
        -0.130702 0.141438 0.248985
        0.761509 2.17993 -0.675537
        -0.944321 2.55191 0.514416
        -0.615571 0.656539 -0.823889
        -0.292716 2.48091 0.198273
        -1.93615 0.792151 0.0287978
        0.954744 2.1105 -0.0393175
        -0.346245 1.74375 0.35125
        0.109482 0.548892 -0.158445
        0.59179 1.05614 0.468123
        1.02016 0.657257 0.920492
        -1.36837 1.63494 -0.625104
        0.00866665 0.738556 1.08687
        -0.885951 0.780423 -0.037919
        -0.15327 0.87162 -0.449873
        0.555817 2.26547 -0.272182
        0.852746 0.733861 0.985115
        0.66188 -0.293134 -0.526245
        0.94788 1.83203 1.20021
        -1.1245 1.16287 -0.750202
        -1.84916 2.24382 0.208376
        -0.540104 0.703115 -0.0487054
        -0.675906 0.932386 -0.0705671
        -0.0157642 2.75953 -0.339039
        0.0176684 1.45733 0.52641
        -0.324287 2.31862 -0.610868
        -0.59592 1.48687 -0.294416
        -0.580773 -0.308935 1.19731
        0.380336 0.939074 -0.0493198
        0.628093 1.39585 1.06573
        -0.313742 1.05737 0.556094
        0.818218 1.21034 -0.544447
        -0.60038 1.30084 -0.167051
        0.354494 0.445308 -1.40508
        1.32676 3.12083 -0.393073
        -0.104663 0.787749 0.435932
        -1.19778 1.0425 0.745096
        0.270603 2.15152 -0.143886
        0.049191 0.667671 0.604807
        -0.0058615 1.86816 -1.65894
        0.621498 1.09893 0.134549
        -0.251264 1.22001 1.03765
        -0.0552246 0.861307 -0.17053
        1.0075 1.2348 0.906321
        0.527348 0.963595 1.4503
        0.259152 3.16292 -0.490782
        0.698518 0.124593 -0.479928
        0.76841 0.530542 0.00749338
        0.340134 0.8219 -0.443467
        -1.35957 1.59687 -0.55722
        0.0186374 1.23349 0.0103799
        -0.724253 1.64835 0.445307
        -1.42165 1.19099 0.06839
        -0.405731 2.16516 0.193613
        -0.743812 1.18454 0.716073
        -0.694769 2.49944 0.459718
        -0.598017 1.035 -0.0670608
        -0.395683 1.5303 -0.46959
        0.288755 1.85735 -0.619932
        -0.310183 -0.114163 0.957451
        -0.343193 1.47739 0.91588
        0.00912372 0.346391 0.203377
        0.20159 1.38366 0.0860417
        -0.359462 1.38433 0.218719
        -0.360361 0.449816 1.40799
        -0.269507 0.449224 -0.280874
        -0.12912 0.152541 0.0517047
        -0.36388 2.20707 0.0742206
        -1.18873 2.9359 -0.0960679
        0.16328 0.903265 -1.4321
        -0.410984 1.82477 1.48686
        -1.01898 0.854991 0.678343
        -0.375982 0.244773 -0.0950789
        -0.959221 1.73038 -0.552132
        -0.289637 1.18655 0.0343514
        -0.240837 1.44184 0.607952
        1.04392 1.00416 -0.0272099
        0.663419 0.181145 1.08091
        1.04331 1.1821 -0.854671
        -0.0710713 0.822623 -0.402045
        -0.0818546 0.266814 0.328422
        -0.732876 1.88243 0.310304
        0.875126 -1.07571 0.309039
        0.259582 -0.457015 -0.764014
        1.80688 -0.519262 1.45241
        -0.293552 -1.18361 -1.13877
        -0.100896 -0.803227 -0.611494
        1.3405 -2.78548 -0.578107
        0.182964 -0.943617 0.0278218
        0.218929 -2.02588 0.395019
        -0.822587 -0.294902 0.0037398
        0.644181 -1.14664 0.108063
        0.381713 -0.873205 -0.076933
        1.05818 -1.20548 0.0287782
        1.56529 -1.39171 -0.0921486
        1.38935 -1.91653 0.268896
        -0.289726 -1.07366 0.117647
        -0.913826 -1.94045 0.921122
        0.0660727 -2.29737 1.69243
        -0.0403304 -0.852191 -0.803819
        1.0278 -1.92922 0.784384
        0.595981 -2.5867 -0.437685
        -0.856447 -0.608378 0.293422
        0.470432 -1.06471 -1.22838
        -0.171728 -1.55911 -0.212371
        -0.533731 -1.41905 0.10098
        0.16929 -2.8516 -0.0669753
        -0.172365 0.267463 -1.13501
        -0.499932 -2.36511 -0.405122
        1.39149 -1.27447 0.211656
        -0.603239 -0.818103 -0.605385
        -0.0104906 -0.889535 -0.9142
        -0.521558 -1.42279 0.0226057
        -1.56137 -1.06468 0.703913
        1.74221 -1.12587 1.39427
        0.378341 0.504776 0.311349
        -0.28484 -0.0817611 0.479868
        -0.416301 -1.91335 -0.0098083
        0.394173 -2.1319 -0.56094
        1.31625 -0.5017 0.821564
        -0.706004 -0.808756 0.595165
        -0.682681 -1.74573 -0.0223303
        1.27091 -1.36292 -0.0431842
        0.0933504 -0.667818 0.771151
        -0.097606 -0.619986 -2.49137
        -0.0438321 -1.17847 0.313369
        0.0837302 -0.362224 -0.272415
        0.53273 -0.745844 -0.374795
        0.805924 -2.08 -1.38679
        -0.215368 -1.36869 0.712618
        -0.781549 -0.909554 -0.110498
        0.472704 -1.89362 -0.176204
        -0.874978 -0.935241 -1.28736
        0.537151 -1.07265 2.19923
        -0.119141 -2.11884 0.264366
        0.854031 -0.448719 1.54004
        -0.606612 -0.743069 -0.838472
        0.646222 -1.39719 -0.762382
        -1.28624 -0.730972 -0.932838
        0.118552 -1.93083 0.671879
        -0.0501302 -0.660043 1.63978
        -1.39251 -1.10607 -1.33392
        -0.19223 -2.09268 0.404943
        0.522012 -1.63284 -0.316831
        -0.860037 -1.71993 0.0658223
        -1.21326 -1.66975 0.81161
        0.470545 -0.707209 0.112026
        -0.320488 -0.440666 0.791457
        0.198404 -1.28518 -0.263035
        0.663371 -2.09817 1.21154
        0.806241 -3.36276 0.482571
        -0.218508 0.159502 -1.09179
        0.695079 -0.523003 -1.81634
        0.452262 -0.401725 0.524317
        1.82329 -0.937345 -0.169707
        -0.0601844 -0.0197634 -0.29315
        1.34738 -1.43158 0.229329
        -0.328147 -2.26749 -0.688162
        -0.297966 -0.829362 0.311495
        -0.125315 -1.77892 0.459222
        -0.929905 -1.20229 0.243786
        -0.607275 -1.90392 0.518109
        -0.0114577 -0.910212 -0.0368958
        1.54638 -1.70015 0.341514
        -0.124413 -0.385346 -1.13566
        -0.231924 -1.58228 0.0425551
        -0.227315 -0.921159 0.548931
        -1.33748 -0.459427 0.492774
        -0.520476 -0.974916 0.191554
        0.744915 -1.02148 0.836947
        0.088938 -1.7537 0.22536
        -0.139403 -1.52106 -0.186008
        0.209393 -1.01507 -1.00381
        -0.484976 -1.8981 -0.163844
        -1.88795 -2.78773 1.7056
        -0.521268 -0.321038 0.441237
        -0.0228179 -2.55297 0.157506
        -0.586044 -1.93122 0.447089
        -0.149794 -1.52864 -0.556286
        0.51377 -1.87357 0.943619
        -0.08521 -0.624778 0.189637
        0.0324471 -3.8811 -0.787405
        0.230186 -1.06108 0.416921
        -0.560641 -1.89496 -0.0749169
        1.48288 -1.00089 -0.697833
        -0.534675 -1.52747 1.7797
        -0.597665 -0.277316 0.259491
        -1.00978 -0.77031 0.65572
        0.644422 -0.791013 1.72091
        0.736179 -3.13984 -0.35903
        0.697711 -1.41454 -0.821243
        0.307973 -0.908101 -0.877897
        -0.597972 -1.66692 0.0578557
        0.66733 -1.46762 1.28379
        -0.520564 -0.818226 -0.363119
        -0.612266 -2.06017 -1.5243
        -0.0321576 -0.700907 -0.571011
        0.766275 -1.00293 1.41217
        0.572609 -1.01373 0.636339
        -1.49429 -0.820771 0.543756
        -0.0487141 -1.78999 -0.331055
        1.11046 0.399726 0.851584
        -2.0731 -0.802754 -0.078292
        0.232309 -0.799176 -1.09875
        0.627024 -1.93487 -0.229667
        0.551108 -1.92615 -1.47151
        -0.0176115 -3.68745 -0.224681
        -0.623519 -3.26415 0.911492
        2.61036 -1.59001 0.296207
        -1.45106 -2.39783 0.747428
        1.73657 -0.818854 0.575718
        0.439048 -1.9713 -0.100779
        0.00724999 -1.4592 0.759425
        -0.633314 -2.4919 -0.612243
        0.869955 -1.07792 0.276683
        0.343603 -1.14075 1.46208
        1.87222 -2.15489 -0.0382216
        -1.5034 -1.11724 -0.392671
        -0.487985 -2.36781 -0.124298
        1.12172 -0.819171 0.461431
        0.224819 -0.804983 -0.815114
        0.310726 -0.365882 0.489132
        -0.409023 -1.82736 -0.895923
        0.47228 -1.56502 0.499283
        -1.08059 -0.270855 0.0908171
        -1.10361 -0.582737 0.956396
        -0.220309 -0.416439 -0.211697
        0.256736 -0.0634086 -0.161809
        0.125836 -1.29266 -1.16479
        0.367569 -0.325352 0.163139
        0.276375 -0.305165 0.956948
        -0.768495 -1.37822 0.359385
        -0.789858 -0.676507 -0.294683
        0.371119 -1.19452 0.915146
        -0.0491168 -1.7033 -0.451078
        0.880487 -1.96341 -0.635145
        -0.0188572 -1.80606 -1.23489
        0.405926 -1.2499 0.298041
        -0.929656 -1.14656 -0.484874
        0.656195 -2.05131 -0.871884
        -1.17378 -0.730322 -0.332217
        1.11182 -1.74045 0.916005
        -0.719278 -1.87472 0.0595439
        0.572668 -1.08202 0.527011
        -0.49527 -2.12328 0.418169
        -1.80831 -1.63239 0.0140447
        -0.399273 0.886646 -1.08297
        -0.630844 -1.50618 -0.518457
        -1.00085 0.260517 -0.137458
        -0.540274 -0.574071 -0.292747
        -0.202698 -0.865041 -0.0772638
        0.210607 -2.69359 -1.8456
        -0.264129 -1.12227 0.516413
        -0.920456 -0.396432 1.3869
        -0.729352 0.74719 -0.472013
        0.853432 -0.333061 0.579208
        -1.59167 0.265196 -0.770497
        -0.411644 -2.9049 0.0686365
        0.40935 -1.17609 -0.931535
        -1.64336 -2.07112 1.4288
        0.340273 -0.382839 1.28325
        0.172671 -2.08874 -0.217277
        -0.82138 -0.609476 0.744178
        -0.0908435 -0.734057 1.11241
        -1.37789 -1.00521 -0.333804
        1.16439 -3.28227 1.26693
        -0.227029 -1.32692 -0.29637
        0.53336 -0.612879 1.03111
        0.641239 -1.37518 -1.63249
        -0.689911 -2.20069 0.0124318
        0.47013 -1.28953 -1.19316
        0.199301 -1.53308 -0.396891
        1.03018 -0.271069 -0.499501
        0.21512 0.346175 -1.01595
        1.4654 -1.3264 -0.0284749
        -0.751243 0.228765 -0.860614
        -2.01673 -1.3356 -1.12976
        -1.49177 -0.784522 0.0508775
        -0.987659 0.707501 0.284437
        1.0499 -0.964209 1.09075
        0.544012 -0.385793 0.0437151
        0.710086 0.881276 0.250221
        -1.12103 0.272625 0.19969
        -0.0731132 0.825284 -1.06477
        -0.53187 1.8651 -0.670151
        0.464629 0.303143 1.17583
        0.902345 -0.06285 0.274606
        0.274032 -0.933195 -0.276146
        -0.302196 1.07565 -0.330576
        0.441115 0.415651 0.289984
        0.835205 0.985129 -0.414946
        0.920553 1.21468 0.0864307
        0.999179 -0.00497478 0.488294
        0.249882 0.907764 -0.100297
        0.989268 0.0435685 0.534316
        0.138807 0.629022 -0.456118
        -0.434441 0.188547 -1.4748
        -1.52849 0.5784 0.186805
        0.351202 1.45292 -1.05414
        -0.776495 -0.179961 -0.534194
        -0.948871 1.01415 1.63594
        1.28397 1.53016 0.476602
        -0.614479 1.03106 0.0483709
        -0.282547 2.52484 -0.302251
        -1.69397 0.019424 2.29702
        0.186408 0.0627115 0.139436
        1.11604 1.40664 0.0776653
        0.54395 0.409648 0.891289
        0.172661 0.551306 0.109146
        -0.383033 0.869193 0.587371
        -0.446653 2.12327 0.166518
        0.273276 1.98505 -0.163817
        -1.24879 2.36082 -0.967554
        0.629797 0.607454 -1.66552
        0.0326507 1.51139 -0.225827
        -1.791 1.77393 -0.214287
        -0.266197 2.05185 -1.35133
        -0.513388 0.799299 -0.155627
        -1.6496 0.673677 -0.426655
        -0.670485 1.25425 0.181135
        0.876885 1.08926 -0.572326
        0.118157 0.132851 0.516499
        0.130382 1.35225 0.455343
        -0.335494 1.83158 -0.409047
        -0.628484 2.46734 0.230964
        -0.595648 0.240458 0.222955
        -0.721297 1.57358 0.451686
        0.110807 2.2935 0.991774
        -0.976246 2.16603 1.39448
        1.25153 1.13627 -0.739378
        0.467138 1.02584 -0.271099
        0.438496 2.35338 0.854448
        -0.394272 2.70253 0.0776502
        0.153956 1.28827 0.267973
        -0.455337 0.0618149 0.312834
        -0.13972 1.3025 -0.497522
        -1.82517 1.21184 -0.929375
        -0.629842 3.06165 -0.496187
        1.486 0.545195 -0.932161
        -0.244681 0.695738 -0.105455
        -0.29755 1.69299 -0.0222849
        0.325643 1.67048 0.304406
        -0.775798 1.07867 0.411128
        -0.110761 0.830652 -0.152159
        0.530459 1.60465 0.399848
        0.122261 1.44475 1.14333
        -0.637409 2.36118 0.35379
        -0.843629 0.673773 -0.136832
        0.24218 1.02527 -1.16362
        0.0535783 0.735649 0.343958
        -2.45428 1.46875 -0.561598
        -0.393088 1.78072 -0.620027
        0.374376 1.1678 -0.47982
        -0.394402 1.32505 0.726553
        0.267854 2.44857 -0.870376
        -1.35545 1.66646 -0.354606
        0.0891429 0.727103 0.842511
        -0.811724 1.55375 1.27833
        -0.33544 1.11056 0.299157
        -0.100018 1.29822 0.413968
        -1.33983 1.36516 1.01642
        0.064247 0.848788 -1.14728
        -1.04911 1.67137 0.842173
        -0.393483 1.43721 -1.15467
        -0.0274873 2.41167 -0.0420595
        0.146422 0.999959 -0.109077
        -1.32545 1.58144 0.446821
        -0.391741 1.9393 0.545366
        0.224015 1.50685 -0.705263
        -0.937426 1.39005 -0.0884927
        0.0506268 0.817762 -0.019383
        -0.0679232 1.50541 1.13648
        0.246978 1.14848 -0.769189
        0.476891 1.86778 -0.324022
        -0.89981 1.10056 -1.22151
        1.62128 0.976802 0.323236
        -0.28906 0.381632 -0.640031
        0.118359 1.58613 -0.962794
        -0.649237 0.327871 0.207373
        -0.315185 1.76738 1.26216
        -0.313363 1.39686 0.092647
        -0.941623 1.64722 0.23281
        0.555134 -0.173671 0.579744
        -0.498442 1.33924 -0.225382
        0.729512 1.8632 0.00656894
        -0.111215 -0.143433 1.404
        0.220192 0.083773 0.718493
        -0.614525 0.749772 -0.725118
        0.526213 3.29197 -0.0607729
        -2.03901 0.911419 0.609481
        -0.810385 2.18383 0.653845
        0.222554 0.116459 0.618391
        0.101766 1.44064 0.458968
        -0.20479 0.645971 -0.103109
        1.62704 1.41395 0.0754596
        -0.331668 2.23825 -0.718619
        0.25198 1.87666 0.756646
        -0.0626586 1.17232 0.0854449
        0.577345 2.15378 0.267423
        0.0848768 0.8362 -0.0944544
        0.532733 0.930325 0.0457598
        -0.314616 1.16439 -0.368588
        0.192482 1.22525 -0.111998
        -0.373593 1.00028 -0.654405
        0.401119 0.983601 -0.368877
        0.141319 1.15993 -1.83489
        1.48845 1.44819 0.48331
        -0.162858 1.56618 0.238107
        -1.31367 1.15313 0.181166
        -1.05783 2.48443 0.287638
        0.177257 1.04585 -0.438358
        -0.482408 2.56284 0.739431
        -1.05189 1.61392 -0.0838696
        0.95515 0.661995 -0.736526
        0.166048 1.15383 -0.1192
        0.348891 1.41036 1.22318
        -0.287001 0.0549831 -0.676969
        0.501488 1.18751 0.314362
        -0.0572723 1.66388 0.781159
        0.861256 1.43876 -0.093107
        -0.523414 1.19099 0.0877879
        0.899756 2.0909 0.382545
        -0.6317 1.62531 0.831882
        0.315253 1.50872 0.383898
        0.45664 1.44634 -1.47189
        0.973322 1.22894 -0.22625
        -0.240509 1.56906 0.021082
        0.744116 -0.269481 0.934438
        0.0616132 1.6526 -0.165209
        0.636843 1.80645 0.273482
        0.283772 2.11967 -0.262669
        -0.250078 1.67147 -0.00937422
        -0.490746 1.83196 -0.0922926
        0.290839 0.337924 -1.35205
        -0.521706 1.92308 -0.83976
        -0.496281 2.66783 -0.300688
        0.338491 1.24642 -0.195225
        1.07263 0.105485 0.805485
        -1.12019 1.5515 0.957629
        -0.637648 1.72084 0.340862
        0.488184 1.48537 0.0904797
        0.979339 2.33817 -1.07465
        0.921647 1.69595 -1.2654
        -0.618758 2.22106 -0.993668
        -0.708205 0.624724 -1.06846
        0.150569 2.16092 0.196386
        -0.443745 0.944981 0.048241
        -0.645645 1.58072 -1.15677
        0.202775 2.47794 -0.183648
        0.991405 1.44013 -0.613421
        -0.347638 0.559354 -1.01161
        -0.638092 -0.818029 0.510813
        -0.121073 -0.474208 0.627697
        1.389 -1.46891 0.454669
        -0.0110711 -0.741368 0.285067
        0.131238 -2.13821 0.247306
        0.121093 -1.57108 -0.453095
        -0.163692 -1.20677 -0.0200917
        1.20049 -1.52732 0.955848
        -1.30836 -2.11398 0.559349
        0.293788 -0.562138 0.336351
        -0.420931 -1.90725 0.436742
        -0.0937947 -2.66849 0.832769
        -0.517955 -1.42324 -0.764046
        0.16383 -0.621098 -0.373737
        -1.28773 -0.99215 -0.643309
        -0.965543 -1.69482 -0.109888
        0.296283 -1.57996 -0.0171979
        -0.686996 -3.20492 -0.351434
        0.0282492 -1.4698 1.10797
        -0.145071 -1.33565 -0.792695
        -0.358783 -0.935368 0.861354
        -1.63051 -0.78937 0.530014
        0.535794 -1.41075 -0.568466
        -0.662834 0.600245 -1.4135
        -1.4423 -1.22199 -0.545985
        0.00814299 -1.44497 0.818428
        -0.512394 -1.17134 -0.315125
        -0.445736 -1.80965 0.497233
        0.0359493 -1.11343 -0.325062
        0.280744 -2.49083 -0.0545267
        -1.11972 -1.78514 -1.22648
        0.895755 -1.52403 -0.668735
        -0.889969 -1.12103 0.0339239
        0.218723 -1.91978 -1.03568
        -0.229492 -1.78018 0.835461
        -1.11969 -0.41888 -0.969901
        -0.401772 -0.110534 0.119677
        0.322864 -0.677112 -0.00821168
        0.250295 -1.1205 -0.838073
        0.794018 -2.51351 -0.698038
        -0.542792 -0.455937 -0.00675662
        -0.317881 -1.50504 -0.38738
        -1.49404 -1.44857 -0.48347
        -0.107401 -0.866341 -0.408436
        2.03863 -0.910969 -0.608743
        -0.213139 -0.456687 1.13715
        -0.565494 -1.03016 -0.237424
        0.197294 -2.31855 0.591239
        -0.0895706 -0.544046 0.605679
        -0.245273 -0.992477 0.155423
        -0.29604 -0.761917 -0.570666
        -0.635821 -1.21275 -0.984004
        -0.485934 -1.29832 -0.0645946
        0.810311 -2.18424 -0.653505
        -0.822595 -2.22648 0.575186
        -0.504044 -0.963588 -0.30586
        -0.105913 -1.3447 0.0388707
        0.212483 -0.714919 -1.69059
        -1.10919 -1.4735 1.3335
        0.57495 -0.664464 0.533394
        -1.07299 -1.37946 0.211663
        0.154436 -1.79169 -0.673681
        -0.928815 -1.53432 -0.2383
        0.572921 -0.264022 0.331388
        1.20636 -1.61551 0.471475
        1.17309 -2.08447 0.0469212
        -0.381949 -0.246322 0.777424
        -0.0198716 -1.39713 -0.712733
        0.524282 -1.43267 0.411988
        0.456522 -1.51601 1.25115
        0.484568 -1.48819 -0.129698
        0.33514 -2.19011 0.768573
        0.548771 -0.672211 -1.45154
        -0.419563 -1.1551 -0.263216
        0.659974 -1.97262 0.97015
        -0.0319523 -0.649342 0.992489
        -0.423769 -0.963398 -0.219523
        0.178726 -0.392327 -0.192084
        -0.198953 -1.35734 0.0410704
        1.37821 0.151325 -0.643173
        -1.24405 -1.99652 0.417282
        1.15231 -1.93502 1.0122
        1.1305 -0.808222 0.879872
        0.324008 -2.86116 -0.92802
        -0.890662 -1.07004 0.534592
        -0.891105 -1.35599 -1.86608
        0.0340947 -1.30697 -0.104413
        -0.408912 -1.5793 -0.789188
        -0.0889221 -2.04746 -1.32384