<?xml version="1.0" encoding="UTF-8" standalone="no" ?>
<VTKFile byte_order="LittleEndian" type="UnstructuredGrid" version="0.1">
  <UnstructuredGrid>
    <Piece NumberOfCells="0" NumberOfPoints="1764">
      <PointData>
        <DataArray Name="velocities" NumberOfComponents="3" format="ascii" type="Float32">
        -0.167166 -1.63852 0.706048
        0.508108 -1.3835 0.840816
        -0.638861 -0.673465 1.04036
        0.472663 -0.546218 -0.985344
        0.505828 -1.1937 0.21438
        1.01757 -2.67561 0.521144
        0.33774 -0.859956 -0.320996
        1.31884 -2.20828 0.00332741
        -0.910735 -1.71527 0.0438661
        -0.225018 -1.28709 0.45965
        0.120435 -1.61592 -0.254141
        -0.912897 -1.4677 0.0462335
        -0.309775 -0.991225 0.27567
        0.527148 0.208862 0.854423
        -0.205918 -2.21116 0.402854
        -0.425834 -2.49958 -0.010145
        0.0740798 -2.69506 0.34738
        0.979035 -0.282233 -1.53574
        0.356585 -1.58932 -2.11423
        1.04311 -0.975034 -2.08799
        0.52239 -0.268962 0.419903
        1.67686 -0.962678 -1.63204
        -0.77821 -1.15986 0.27424
        -1.99376 -0.612471 0.955554
        0.372661 -1.61179 0.243571
        0.0372787 -1.84193 -0.571109
        -0.261003 -0.772879 -1.00239
        -0.458067 -1.66178 0.068646
        0.776722 -0.767757 -0.228847
        0.203699 -0.531552 0.76332
        -1.16364 0.372869 -0.161605
        -1.09084 -1.23502 -0.588866
        0.381856 -1.07144 -0.79204
        0.539055 -0.984569 -0.421514
        0.697057 -1.13564 0.18365
        -0.705126 -1.29805 -0.403391
        -0.163439 -1.0316 -0.0113452
        -0.497664 -0.616224 0.451317
        1.07031 -1.41379 0.218733
        -0.143156 -1.87221 0.17391
        -0.45988 -1.38684 0.691701
        0.171942 -1.68115 0.47493
        -0.606616 -0.222347 0.293302
        -0.118587 -1.19648 0.261544
        0.117124 -3.24022 0.625355
        0.409014 -0.253337 0.0751281
        0.123614 -0.935443 -0.032416
        0.122065 -1.30944 0.574776
        0.505035 -1.45113 -0.781669
        -0.62779 -0.803775 -0.0406272
        -1.26044 -1.00716 -0.172802
        0.509007 -1.50862 -0.830186
        0.42731 -1.9999 0.310626
        -1.33505 -2.88876 -0.162259
        0.8057 -1.49463 0.0437592
        0.719724 -0.69354 -0.131512
        0.9786 -1.50583 0.518206
        0.785729 0.216007 1.76181
        -0.217647 -0.768095 0.452697
        -0.517171 -0.376379 0.371811
        0.393466 -0.665321 0.471704
        -0.331165 -1.15211 -0.901599
        0.0652541 -1.47457 -1.13902
        0.022846 -2.17811 1.12022
        -0.252613 -3.01854 -0.524105
        0.49597 -0.00500952 -0.0939879
        -0.495486 -0.153222 1.11471
        0.105357 -1.90411 1.09957
        1.7229 -0.102957 -0.0636926
        0.34614 -0.804515 0.492582
        -0.394769 -2.00868 -0.814087
        0.184764 -1.83829 0.518114
        -0.257786 -1.24586 0.680507
        0.708648 -1.5557 0.663464
        0.267744 -1.62412 -0.616613
        -0.157108 -1.99515 0.521291
        0.348212 0.771168 -0.048277
        0.982168 -1.26163 -0.127022
        -0.294931 -1.79174 0.177493
        -0.231244 -1.55619 0.299033
        0.867237 -1.1039 0.387535
        -0.371132 -0.327311 0.212965
        -0.156805 -2.34462 -0.0800029
        0.00880195 -1.58981 -0.881194
        -0.167496 -2.02039 0.662539
        0.0968681 -1.31845 0.190542
        0.420045 -0.201758 1.08572
        -0.0165505 0.00549679 0.00856977
        -0.737468 -1.18683 -0.419778
        0.452395 -1.05577 1.29024
        0.820773 -0.550645 0.182281
        -0.582781 -0.289883 0.169925
        1.28912 -1.98627 -0.823177
        0.129524 -1.19744 0.176896
        0.472881 -1.18831 -0.227314
        -0.910703 -1.33857 -0.261647
        -1.87158 -0.931648 0.982341
        -0.313952 -1.44614 -0.519134
        -1.52225 -2.38962 0.788633
        0.221877 -1.11311 -0.302797
        -0.562775 -1.66299 0.176866
        1.46736 -1.96182 -0.608712
        0.533949 -2.50362 0.413305
        -0.633801 -2.84294 -0.170961
        0.477153 -1.1121 -0.186266
        0.771833 -1.64949 -0.431771
        -0.0370509 -1.82191 0.508614
        0.0569535 -0.742374 -0.810906
        0.141677 -1.11553 0.644272
        -0.00119813 -0.683569 -0.356572
        -0.210066 -0.700387 -0.460426
        1.20718 -2.30923 0.6535
        0.0751967 -0.278942 0.0286003
        -1.37163 -0.16139 0.344903
        -0.0295467 -1.26827 -0.984055
        -0.504225 -0.622834 0.229652
        -1.11698 -1.86978 0.177309
        -0.498386 -0.644105 -1.87896
        0.230778 -1.51666 -0.465428
        -0.0613443 -1.43978 -0.354314
        -0.171098 -0.579931 0.727696
        -1.34628 -0.494167 0.35023
        -0.0147194 -1.10714 0.163856
        0.260963 -1.11368 0.0378143
        0.672398 -0.376106 -0.419507
        1.14568 -0.128581 -1.34745
        -0.556357 -1.39148 1.80254
        -0.344714 -0.860899 0.833925
        1.00862 -1.3501 0.0401176
        0.865333 -2.10567 -1.02118
        0.420171 -2.57916 -0.532215
        0.54276 -1.25341 0.815185
        1.95333 -0.0141556 0.398722
        -0.0706976 0.314318 -0.574635
        -0.502723 0.33649 -0.0829569
        0.966579 -0.507698 0.0935776
        -0.177999 -1.83235 0.717396
        1.41637 -2.37582 0.74273
        -0.530629 -0.751418 0.644494
        0.219733 -1.50006 0.195135
        0.254736 -0.111396 -0.096118
        0.725999 -2.07753 -0.385279
        -0.140424 -1.0443 -0.485785
        -0.844606 -1.50222 0.646505
        -0.598367 -1.37517 -0.321651
        -0.896538 0.550818 -0.512876
        -0.390667 -0.704009 0.350811
        0.965178 -0.799554 -0.316877
        0.707166 -0.911161 -0.448182
        1.301 0.0372468 0.771797
        0.340942 0.116752 0.532117
        -0.230294 -1.00098 -0.536741
        -0.219685 -0.747965 -0.0569952
        1.09255 -2.12531 -0.0293638
        0.161363 -0.981004 0.521618
        -0.576289 -1.72792 -0.835896
        -0.618377 -0.816476 0.717998
        -0.811537 -0.82081 -0.527195
        0.474411 1.53076 -0.586872
        -0.531527 -2.24258 -0.292605
        -0.478639 -0.572418 0.547484
        1.30099 -1.04869 -1.03702
        -0.790768 -1.14419 0.609949
        -1.40412 0.838659 -0.848618
        -0.0201171 -1.43839 -0.22685
        -0.122667 -0.974742 0.252888
        -0.260159 -0.858122 0.850197
        0.347079 -1.35252 0.832317
        0.642773 0.361039 -0.112184
        0.235378 -0.340266 0.283753
        -0.471008 -0.367701 -1.00784
        -0.170251 0.924346 -1.40344
        -0.519184 -1.6649 -0.260454
        -0.588655 -0.799441 0.937036
        -1.26017 -1.88005 0.499233
        -1.50145 -2.64919 0.159502
        -0.32252 -0.719709 0.123061
        0.108333 -1.44585 0.185029
        -0.458233 -1.41965 -1.63821
        -1.19163 0.00409879 -0.328395
        0.701152 -1.83025 0.568426
        -1.31749 0.118328 -0.506911
        0.784757 -0.321771 -0.100401
        0.0464773 0.76356 -0.261647
        1.03103 -1.50479 -0.795343
        -0.738341 -0.298453 0.711532
        1.77432 0.634725 -0.465423
        0.574321 1.36764 -0.764775
        -0.989328 0.715128 -0.106781
        0.616173 0.777966 -0.18051
        0.8466 0.664987 0.807624
        -0.527869 0.236068 -0.584304
        -0.902034 1.88573 -0.876067
        -0.0238184 0.102349 1.36233
        -0.461527 -0.394899 0.424606
        0.394933 -0.019446 1.1717
        -1.09699 1.75858 0.602727
        0.550759 -0.297329 -0.289864
        -0.449976 2.28498 0.490562
        0.396954 1.07177 -0.222167
        0.625501 1.16514 0.272402
        0.744324 1.53522 -1.03727
        -0.347849 0.800034 1.06662
        1.44444 1.02372 0.329279
        0.849654 0.472922 0.492788
        1.44794 0.657498 -0.0924012
        1.76101 0.378911 1.52425
        -1.50807 1.18079 0.212867
        0.875119 2.35163 0.645661
        0.014971 1.4274 0.754995
        -0.261753 2.30269 0.104187
        -0.308977 2.1233 -0.135412
        -0.418566 0.705518 -0.382806
        -1.40057 1.73214 -0.658295
        -0.313942 0.847621 1.68694
        0.87731 2.29958 -0.448051
        0.135848 1.0498 0.261348
        -0.998117 1.37218 0.829418
        -0.684219 1.3386 -0.841067
        1.2166 1.52453 -0.402842
        -0.0757957 0.702365 0.0485084
        -0.0263663 0.663463 0.414941
        1.21841 1.02662 -0.107787
        -0.205205 0.575523 -0.581617
        -0.562225 1.46751 -0.422833
        0.349318 0.707195 -0.522887
        -0.204552 1.39794 -0.161429
        -0.779361 1.00079 0.151004
        -0.197468 1.23687 -0.808335
        0.165355 1.9731 -0.94203
        -1.92053 1.05645 -0.0157211
        -1.50487 1.18597 -0.73371
        -1.53745 1.49955 -0.0299882
        -0.760768 2.15386 -2.02963
        -0.960508 1.17167 0.88146
        -0.0358189 1.76636 -0.627886
        0.687132 0.939124 -1.60991
        -0.954302 2.34833 0.576932
        0.151585 1.82264 0.171314
        0.827444 0.829096 0.149152
        0.404077 1.85054 0.747297
        0.872151 1.66361 0.0531839
        0.364519 0.297937 0.350311
        -0.321437 2.20697 -0.483327
        0.166129 0.694704 0.188027
        0.737294 1.57657 -0.196203
        0.432311 2.05973 -0.796865
        0.422676 1.12887 1.58984
        0.421904 2.02946 -0.379846
        0.0769579 1.93932 0.423736
        -0.110851 1.78553 0.918298
        -0.315575 1.81803 -0.852075
        -0.977841 -0.180217 -0.250464
        -0.219372 -0.114999 0.0345491
        0.337741 0.55423 0.0194461
        0.0821471 1.442 -1.26965
        -0.624577 1.26098 0.0552055
        0.605314 2.39357 -2.20261
        -0.353948 1.72732 -0.359471
        -0.398426 0.166797 0.461034
        0.0633548 1.72297 -1.0657
        -0.741441 1.58905 0.7728
        1.15877 2.13372 -0.724712
        0.227767 1.99276 -0.700612
        0.0320944 2.6423 0.0542517
        0.104583 2.09672 1.02609
        0.65095 0.958141 -0.655115
        -0.145086 2.9539 -1.36205
        -0.255067 1.33724 0.599155
        0.804954 2.32343 -0.249884
        -0.23819 0.453895 -0.434149
        -0.523582 1.29561 0.0956255
        -0.485761 0.580441 0.44136
        -1.11772 1.23541 0.529833
        0.593689 0.208986 0.0675554
        0.999756 0.507577 0.21539
        -0.29441 1.63858 -0.656013
        -1.28365 1.22846 0.479498
        0.192402 -0.570132 1.10719
        1.44295 1.92514 -0.130792
        -0.133426 1.16092 -0.425868
        0.131783 2.51031 0.946958
        0.601068 1.95636 0.156681
        0.163719 1.57821 0.527713
        0.144005 2.25979 -0.0492166
        0.40323 1.43663 -0.0844969
        1.07042e-05 1.17731 0.872788
        0.170848 1.65906 -0.012045
        -0.817006 1.65468 -0.641416
        -0.0642862 3.10458 0.781224
        0.710696 1.9845 1.27067
        0.281304 0.93303 0.364636
        -0.113506 1.28051 -0.199135
        -0.90236 0.489617 0.524228
        -0.880953 0.718816 0.64596
        0.515239 1.66821 0.106547
        0.879763 0.97811 0.0858729
        -1.18531 2.14507 1.22324
        1.03432 2.06403 -0.229283
        -0.197654 1.58561 -0.932168
        0.446342 2.23721 0.629053
        0.0184921 2.37036 -0.458702
        -0.9514 0.829013 0.514008
        0.347192 2.34731 -0.582144
        0.0697693 1.15542 0.901486
        1.24957 2.67336 1.61124
        -0.0786018 1.37305 0.822104
        -1.01073 0.853199 -1.3456
        -0.568413 1.03094 0.0760812
        -0.354937 2.18053 -0.564911
        0.0991927 0.105208 0.011571
        -0.624699 0.3653 -0.0962636
        -1.30566 0.835282 0.000573505
        1.07382 1.78495 -1.44323
        0.00229743 0.994845 0.405929
        -0.589838 0.25076 1.59881
        -0.350802 1.71758 0.322044
        0.672941 0.251949 -0.00506157
        -1.14528 2.48618 -0.990407
        -0.115177 1.34584 -0.908488
        -0.819754 1.67891 -0.651983
        -0.0700067 1.92754 0.841512
        -0.871806 1.36393 0.687816
        0.11047 1.82071 0.586952
        -1.36143 0.580594 0.633504
        -0.295413 1.79878 -0.240964
        0.225452 0.427622 0.739566
        0.657896 0.703316 -0.587601
        -0.656319 0.981458 -0.672955
        0.37809 1.74966 -1.04551
        -0.250613 1.96388 0.512714
        0.203721 1.53743 0.47611
        0.389589 0.870007 0.498931
        0.901469 1.05474 1.01802
        -0.0360615 0.0355442 -0.181692
        -0.562884 0.885076 -0.250716
        0.433282 1.18468 -0.713203
        0.923021 1.24502 0.584989
        -0.212309 1.71195 -1.71136
        0.324472 -0.402084 0.35416
        -0.487755 1.17396 -0.895865
        0.288727 -0.342403 -0.336531
        0.787824 -0.0845394 0.599367
        0.58078 1.41354 -0.229704
        -0.138893 0.125922 0.682876
        -0.101374 1.36089 -1.1696
        0.826105 1.82969 -0.786745
        -0.526599 -0.20489 0.524765
        -0.486898 1.42965 -0.199039
        -0.484533 1.79935 -0.204033
        -0.437736 0.716515 -0.381722
        -0.143869 0.173707 -0.11797
        0.256563 0.732666 -0.551868
        -1.27386 1.2043 0.626346
        -0.302344 1.12814 -0.785829
        1.25586 0.577649 0.352306
        0.489406 2.86651 -0.472889
        1.13778 1.23036 1.45233
        0.350429 2.88124 0.499466
        -0.442253 1.69663 0.265032
        -0.295552 -0.0497703 0.0220988
        -0.363382 0.0506393 0.367762
        -0.610849 1.88997 1.24901
        -0.471843 1.90094 0.488699
        -0.405663 0.875723 -0.143485
        -1.04597 1.99125 -0.781976
        -0.263377 0.986359 -0.794524
        -0.150084 0.0206797 -1.28885
        0.612623 -0.40397 -0.431781
        0.729309 -1.75906 0.500319
        -0.94558 -2.10426 0.124888
        0.108022 -1.2796 -0.273545
        0.687533 -2.48031 -0.723243
        -0.456869 -0.984138 0.249094
        1.16521 -0.779828 1.14365
        0.574038 -0.800752 -0.396488
        -0.397618 -0.121137 -0.365952
        -0.100629 -0.461534 0.285039
        -0.947079 -1.72594 0.44784
        -0.274111 0.0854647 1.43697
        -0.423679 -0.863568 -0.567311
        1.36061 -1.33132 1.60212
        -0.861761 -1.18081 0.983819
        -0.101632 -0.398664 -0.396014
        0.0934652 -0.00908567 -1.16901
        0.892785 -1.87109 -0.298422
        0.911826 -2.11864 -0.198738
        -0.307283 -1.5052 -0.184116
        0.0806545 -0.530482 -1.14343
        -0.277989 -0.021488 0.228846
        1.14553 0.586633 -0.382227
        0.249297 0.203208 0.143797
        -0.599824 -2.56942 0.444914
        -1.26849 -2.17948 0.0676666
        -0.0279092 -1.88055 -0.264335
        0.738106 -0.480831 1.61078
        -0.0229671 -1.75709 0.354751
        -0.841627 -1.27486 -0.110551
        -0.679137 -2.10892 -0.403518
        -1.16361 -1.79026 1.57167
        0.578783 -0.608839 -0.000484558
        -1.3913 -0.634526 -0.736156
        0.62144 -1.00656 0.0485833
        -0.289183 -0.480821 0.303299
        -0.27333 -1.34828 -0.0183049
        0.419782 -1.36441 0.153925
        0.814927 -2.23 -0.787836
        -0.374396 -1.53896 0.175825
        0.454371 -2.16954 0.143147
        0.194873 0.214723 -0.827581
        -0.151403 -1.8913 -0.0611016
        -0.411282 -1.09799 -0.0853025
        0.663654 -0.905361 0.30814
        -0.721383 -0.863567 0.300792
        -0.590731 -1.06286 -0.49444
        -0.440919 -1.49539 -0.211993
        0.442859 -0.975196 -0.437626
        0.171649 -1.83757 -0.0367758
        -0.985802 -1.75912 -0.00112886
        1.22179 -0.291155 0.349753
        -0.377672 -0.562465 0.0607604
        -0.957092 -0.451257 -0.233274
        0.453772 -0.718885 1.25303
        1.3674 -2.33568 -0.317553
        0.0801061 -0.977483 0.0932719
        0.341129 -1.05455 -0.971455
        -0.583739 -2.04445 1.47212
        -0.371624 -0.750018 -0.258114
        -0.817037 -1.86492 0.749545
        0.340017 -0.41508 0.350959
        0.975274 -0.97147 -0.202226
        0.169186 -1.85251 0.310452
        0.161301 -1.62776 -0.468765
        0.302615 -0.943101 0.0404903
        -0.520982 -2.91831 -1.41138
        1.24922 -2.00364 0.205497
        0.31153 -2.32586 -0.307395
        0.593856 -2.37202 0.167066
        0.062005 -1.46252 0.673776
        0.261651 -0.915495 -0.021802
        1.06345 -1.51607 -0.47285
        -0.269122 -2.08772 1.15669
        0.685363 -1.33214 -0.732024
        0.870111 -1.48415 -1.16439
        0.824179 -0.681749 -0.722036
        0.720952 -2.34428 0.109739
        0.207881 -2.4281 -0.137136
        -0.223345 -2.27359 -1.35694
        -0.876913 -0.558807 0.579607
        0.0429235 -0.497706 -1.32152
        -0.452301 -1.75422 -0.026528
        1.08518 -1.96834 -0.115081
        -0.212594 0.165732 0.521894
        0.641541 -0.681872 -0.14256
        -0.138263 -1.53598 -1.21931
        0.365407 -0.429168 -0.0228608
        0.845743 -1.19242 0.446119
        -0.0886103 -0.364844 -0.965816
        1.88761 -1.30056 0.356772
        -0.201867 -2.20441 0.28139
        -0.374559 -1.29653 -0.190719
        -0.638159 -1.74294 -0.256568
        -0.293779 -1.99545 0.543456
        0.73084 -0.835122 -0.0703342
        0.252488 -2.08702 0.463437
        -0.175762 -1.7734 -0.396401
        -0.0531609 -2.29866 -1.34289
        -0.530222 -2.09866 -0.724456
        -1.28174 -0.370966 -0.259417
        -0.656714 -1.57567 0.207016
        0.87725 -2.5041 0.151272
        0.891231 -1.50366 -0.851606
        0.338149 -1.50973 -0.241138
        -0.397572 -0.606087 -0.608362
        0.0314752 -1.2757 -0.414404
        0.56776 -2.33542 -0.82602
        -0.0674481 -1.08682 0.082302
        -0.341066 -2.07436 0.399376
        -0.710673 -1.21974 -0.138892
        0.903153 -2.25961 -0.478483
        -1.66891 -1.96104 0.829348
        0.10311 -0.832168 1.21535
        1.11501 -1.02553 0.0802369
        0.212005 -0.852812 0.332291
        0.683638 -3.17453 -0.663808
        -0.43015 -2.47673 0.742039
        -0.998443 -2.00711 0.616951
        1.39326 -1.15429 -0.832838
        1.36018 -1.73827 1.35065
        -0.121679 -0.589947 1.81155
        0.839872 -0.479301 -0.435265
        0.240701 -2.43733 0.959899
        0.0654977 -1.22348 0.285448
        1.11109 -2.62683 -1.23347
        1.0188 -1.06714 -0.962546
        -1.22073 -0.893909 -0.797002
        0.597699 -1.52289 -0.177887
        -0.377402 -0.521698 -1.41961
        0.62578 -1.12962 0.0994316
        0.662615 -1.13122 -0.300614
        0.826539 -1.6684 0.0183974
        0.854976 -1.36335 0.90025
        -0.681105 -0.739307 -0.623655
        1.75764 -1.89681 0.863051
        0.282616 -0.966229 -0.168171
        -0.510279 0.573816 0.0106603
        -0.482 -1.94427 -1.40265
        1.71117 -1.24014 0.0813344
        1.28942 -2.20425 -1.28558
        2.12944 -1.967 -0.401551
        -0.507836 -1.37271 -0.756884
        0.152393 -0.42409 0.0165275
        0.234883 -0.827146 0.00693613
        1.24362 -1.09563 -0.839131
        -1.17488 -1.9679 0.276756
        -1.72086 -1.40159 -0.935179
        -0.165248 -0.21447 -0.463495
        0.433195 -2.14053 -0.120082
        -0.692167 -2.1421 -0.119881
        -0.724991 -0.639244 -0.753402
        0.613615 -2.07646 -0.366884
        -0.180202 -2.06443 0.615536
        0.109499 -1.01579 0.986058
        0.364078 -0.049195 0.761459
        -0.120444 -0.117278 -0.203548
        -0.169094 -1.79448 -0.127184
        -0.680703 -0.636156 1.60187
        -0.897329 -1.15247 -1.38946
        -0.409266 -1.11943 -0.293698
        0.878097 -1.06214 -1.61701
        0.601783 -0.609687 -0.311601
        -0.153518 -0.985564 -0.0883479
        0.581056 -1.62333 0.683005
        -1.49598 -0.461452 0.0614937
        -0.697567 -1.2258 -0.842541
        -1.00076 -0.800517 -0.430812
        -0.762728 -2.33233 -0.105072
        0.46831 -0.688393 -0.278493
        -0.923082 -1.21681 0.085357
        -1.03057 -0.468659 -0.703591
        -0.872376 0.0110695 -0.662908
        -1.04363 -2.84923 0.331718
        0.102982 -0.705502 0.24641
        -0.529334 -1.7104 -0.110329
        -0.543663 -1.41271 -0.21157
        0.106924 -0.810407 -0.668395
        -0.559244 -0.834755 -0.7332
        -0.466665 -1.46229 -0.317186
        0.326276 -0.310607 0.0402885
        -0.34057 0.525272 0.0359187
        -1.78772 -0.4716 -0.488917
        -0.785615 -1.89932 0.674925
        0.0393282 -1.70609 1.33237
        0.897606 -1.51569 0.340844
        -0.45951 -1.40479 0.987532
        1.46214 -1.63101 0.783325
        1.87531 0.274436 -0.574851
        -0.83891 -1.02326 -0.0144734
        0.454916 -0.370146 1.00316
        -0.459435 0.800988 0.0296724
        -1.10227 0.129151 0.784571
        0.159963 0.845317 0.592594
        -0.435558 0.644968 -0.677579
        0.181807 0.846742 0.316611
        0.439134 1.60185 -0.0760666
        0.726633 0.425536 0.343299
        0.511144 0.238723 0.185463
        0.979874 0.0383069 0.828613
        0.818179 -0.056407 -0.385942
        -0.289849 0.960345 1.29958
        0.57284 0.723996 -0.215023
        -0.829208 0.51338 0.348502
        -0.214897 0.0867973 -0.296001
        0.0873541 1.58007 -0.727915
        -0.533946 0.0127177 -0.955273
        1.5918 0.721348 1.40529
        -1.62089 1.9687 0.664972
        -0.0869117 1.30354 0.655025
        0.105279 1.33926 0.798206
        1.03707 -0.0278962 -0.398321
        -0.407934 -0.307338 -0.798084
        -0.484859 0.819616 -1.94593
        0.401575 1.4105 -0.309871
        1.16448 0.619964 0.693032
        -0.882911 -0.3949 0.474295
        0.883618 1.21069 0.657335
        0.149114 2.39633 -0.230473
        0.175075 1.14618 -0.613089
        -1.27582 0.526202 0.763443
        0.926879 0.695371 0.128623
        0.15881 1.47335 0.459643
        -0.713936 1.07964 -0.779942
        -0.187303 0.971764 0.896985
        -0.546033 0.37681 1.22567
        -1.29773 1.34707 1.40576
        0.121808 1.01315 0.254311
        0.696368 1.54246 1.40588
        1.11788 1.11521 -0.324155
        -0.95832 0.0870117 1.39886
        -0.183363 -0.0667537 2.09323
        -0.577383 1.86529 1.25174
        1.11344 1.33835 0.0926129
        -1.12079 1.32381 0.402071
        -0.127595 0.0187833 -1.14266
        -1.2604 2.49601 0.245247
        1.18324 1.42073 0.0316567
        -0.277207 1.05008 -0.0581153
        -0.244345 1.90456 1.09487
        -0.0684718 1.20025 0.5661
        -1.30517 -0.236572 0.450433
        1.66487 1.79256 0.632747
        -1.03564 1.02396 1.42453
        -0.126536 1.63528 -0.0134414
        -0.349466 0.632346 -0.986354
        -1.21646 1.19032 1.54906
        -0.966192 2.19365 2.24836
        0.476782 1.16925 0.764622
        -0.0569924 0.585789 0.821353
        -0.241441 1.57305 -2.37152
        -0.873586 0.49314 1.81528
        0.202807 1.37019 -0.470033
        0.224335 0.419929 0.990976
        0.823265 2.09823 -1.69461
        -1.06273 2.48772 -0.534494
        -0.354936 1.12337 0.483295
        -0.699243 0.109303 0.126507
        -0.400916 1.35822 -0.0126395
        1.33247 0.564289 -0.352268
        0.464363 0.310545 -0.667525
        0.482213 1.52362 -1.06549
        -0.436224 0.69751 -0.699861
        0.137531 0.63126 -0.364835
        1.11488 1.50139 -0.239037
        -0.595346 1.63683 0.184183
        -0.731708 2.40562 0.467173
        0.876855 1.51106 1.18923
        0.776947 -0.275977 1.30261
        -0.140684 1.18145 -0.983353
        1.29375 -0.947139 -1.05239
        -0.028317 0.909016 0.84946
        0.149696 1.25975 -0.80032
        0.164552 2.40811 -0.0932744
        0.796705 0.231857 -0.371468
        0.359556 3.27383 1.3645
        1.37938 1.05809 -0.621053
        0.0868774 0.926448 -0.30191
        0.182 1.30857 0.364285
        -0.719124 1.27041 0.406841
        -0.0350129 1.69306 -0.231647
        0.0144786 1.91893 0.338383
        -0.774192 2.84839 0.323778
        0.34163 2.94918 -0.251387
        1.03139 1.98028 -0.700929
        0.780652 0.804467 -0.489759
        -0.454465 1.61948 0.413513
        -0.777642 0.963241 0.739469
        -0.464082 1.13965 -1.39881
        -0.411702 1.28105 -1.09646
        1.46108 0.892816 1.19862
        -0.247035 0.305285 1.10803
        -0.380501 0.0300444 -1.6389
        0.698225 2.26446 0.529335
        0.285855 1.35121 -0.172625
        -0.817102 2.49018 -0.0466116
        0.152293 0.65873 0.509999
        -0.0302021 1.87379 0.0755884
        -0.588113 1.25067 0.213012
        0.634369 0.947901 0.511948
        -0.645308 1.72101 0.441498
        0.54233 1.82038 0.771894
        -0.438865 1.77764 -0.765049
        -0.00727544 2.51898 -1.33773
        -1.62529 0.680651 -0.745467
        -0.846076 2.02417 -0.0540168
        -0.692996 0.323134 0.0439684
        0.0359845 2.21337 -0.662237
        -0.187801 1.84299 0.75661
        0.19152 2.77596 -0.0148453
        0.164485 1.75258 -1.13654
        -0.478416 -0.311183 0.102402
        0.063718 1.94183 -0.595252
        0.947763 0.746754 0.979358
        0.340161 1.04801 -1.02385
        0.743474 1.55794 -0.18518
        -0.19404 1.80007 -0.353764
        -0.274323 0.320332 0.505159
        0.5492 1.02415 -0.476133
        -0.180396 2.18094 0.163979
        -0.693594 2.13625 0.891813
        0.085701 1.62177 0.835112
        0.262467 1.32451 0.218159
        0.785348 0.853062 -0.406762
        0.0657479 2.14936 -0.368439
        -0.0147929 1.83294 0.148185
        0.861549 0.229754 0.636471
        0.0712326 2.1143 0.267474
        0.740929 1.72611 -0.269611
        -1.48659 1.38838 0.599804
        0.126666 1.69867 -0.14237
        -0.137711 2.72027 -0.0143181
        0.675776 0.918146 1.3116
        0.560627 0.888164 0.75755
        -0.243865 1.1493 0.388151
        -0.0191702 1.50284 0.148116
        -0.621975 2.08296 1.42989
        -0.16423 0.779863 -0.397021
        -0.732859 1.90523 -1.30258
        0.567992 1.74841 -0.577599
        -0.604595 2.74105 1.12123
        0.372421 2.13736 0.0838221
        -0.0735049 0.539057 0.545395
        0.836669 0.876992 -0.141648
        0.953029 1.69813 0.952368
        0.184488 0.718305 0.414768
        -0.720898 2.09549 0.512881
        0.0792926 1.25972 0.692695
        -1.09665 -0.0204493 -0.524631
        -0.175899 0.90403 0.0723635
        1.19438 2.14922 -0.650577
        -0.864625 1.07345 -1.29621
        -0.246203 1.73619 0.354775
        -0.224571 2.0308 -0.241306
        -0.717287 1.55173 -0.0515109
        -0.656145 1.81618 -0.062676
        -0.628812 -0.686593 0.353123
        -0.0752147 1.73177 0.0047939
        1.4707 0.516404 -0.133631
        -0.02296 1.36947 -0.685348
        -0.0357226 1.45342 0.221983
        0.18359 2.1816 -1.19485
        -0.345773 1.65546 0.495446
        0.793172 1.78653 1.06863
        -0.108555 1.24806 1.34923
        -0.154716 0.294519 0.314687
        0.540931 1.16643 0.117046
        -0.310751 0.621703 0.0224188
        -0.524359 3.2399 -1.14202
        -1.05145 1.27071 -0.136893
        -1.05893 1.2999 -1.18808
        0.844616 -1.5635 0.665018
        0.655545 -2.62813 1.31026
        -0.608745 -0.146016 0.185124
        -0.580216 -2.1109 0.928808
        0.363579 -2.03007 0.795577
        -0.608428 -1.81242 -0.816395
        0.527242 -0.0883226 -0.147668
        1.463 -0.959498 -0.682492
        -1.182 -1.3391 0.631473
        -0.367584 -0.877055 -0.0956991
        -0.417538 -1.80584 0.977505
        -1.61253 -1.08021 0.11693
        0.489259 -1.09603 -0.0797701
        -0.941892 -0.302808 -0.0930128
        0.105623 -0.930858 -1.64962
        0.215552 -2.38579 -0.242204
        0.757194 -1.9643 0.494676
        -0.261717 -0.623808 0.211956
        0.204314 -2.58489 -0.0137801
        -0.326163 -1.85825 -0.380524
        -0.517688 -0.61659 -1.386
        0.606725 -0.885551 -0.00217398
        0.236492 -0.697231 0.870741
        -0.802599 -1.91909 1.21348
        0.629345 -0.599463 1.77816
        1.62396 -1.53792 0.324847
        0.322641 -0.867133 0.0100171
        -1.22349 -1.49104 -1.0746
        1.15375 -1.66653 1.00203
        -0.49772 -1.18864 -0.473313
        -0.869936 -3.52508 -0.445446
        -1.02843 -1.53406 -1.76804
        0.175218 -0.896536 2.11051
        -1.11547 -2.724 -0.678507
        -0.652817 -1.15036 -0.722569
        0.165331 -2.52519 0.0956125
        0.20713 -0.849397 -0.837356
        0.8269 0.0134577 -1.72212
        0.281781 -0.958768 0.23844
        0.173576 -0.997394 0.957324
        0.84443 -0.624245 -0.272801
        -0.8857 -0.935941 -1.22948
        -0.250024 -2.99834 0.233271
        -0.5427 -1.51475 0.287896
        0.151236 -2.54022 -1.46945
        0.0981064 -0.0721137 1.2339
        -0.695716 -2.24856 0.619143
        0.38357 -1.26513 0.000661377
        0.906077 -2.02823 -0.460057
        1.13461 -1.88242 -0.146709
        -1.00365 -2.88481 -0.000248309
        -0.205056 -0.100778 -1.23596
        1.05506 -1.24089 -1.27119
        0.363453 -1.60748 -0.227011
        -0.601644 -3.11164 -0.718167
        0.630682 -1.89211 1.23509
        -1.26809 -1.06469 -0.321713
        -0.901385 -1.84721 -0.803493
        -0.130397 -2.19127 0.511248
        0.720941 -0.199353 0.157551
        1.15618 -1.84322 -0.867873
        0.0416695 -0.979397 0.196642
        -1.70388 -1.55226 0.4739
        0.366184 -0.188352 -0.54349
        -0.708296 -2.52218 0.182423
        0.658299 -2.05446 0.384262
        0.0488152 -1.77047 -1.29017
        -0.654997 -1.62468 0.353595
        0.288813 -1.71169 1.55231
        0.649824 -1.93346 0.418634
        1.38678 -0.875834 -0.994089
        -0.0678278 -2.92478 -0.102325
        -0.218335 -0.923309 0.077123
        0.12763 -2.39675 1.10532
        0.197849 -2.55584 0.193232
        1.30018 -0.675668 -0.067474
        -0.018104 -2.48489 -0.216944
        -0.833113 -2.94002 0.829165
        1.26509 -0.289175 0.347854
        0.233038 -1.50639 -0.433362
        -2.09502 -0.463112 1.48593
        0.889675 -2.49735 0.602054
        0.0724471 -1.72862 0.836569
        0.387416 -1.76849 0.977776
        0.20209 -0.952723 -0.948671
        1.1336 -1.49308 -0.660925
        -0.583621 -0.38136 -0.185974
        -0.648996 -1.39551 0.91216
        0.0494486 1.0583 0.80836
        0.453469 -1.60291 -0.252902
        0.528208 -0.350837 0.0776514
        0.00492756 -2.21343 -0.0937537
        -0.018931 -2.98908 -0.869853
        -0.0261402 -1.18732 -0.21251
        0.392154 -0.590001 0.261169