<?xml version="1.0" encoding="UTF-8" standalone="no" ?>
<VTKFile byte_order="LittleEndian" type="UnstructuredGrid" version="0.1">
  <UnstructuredGrid>
    <Piece NumberOfCells="0" NumberOfPoints="1764">
      <PointData>
        <DataArray Name="velocities" NumberOfComponents="3" format="ascii" type="Float32">
        0.38183 -1.45486 -0.727196
        1.59019 -0.0476676 -1.25526
        0.192213 -1.04379 0.204665
        -0.36388 -2.34349 -0.161019
        -0.543667 -2.32496 -0.247437
        0.316169 -0.797394 0.844229
        -0.0242403 -1.45163 0.858
        -0.0412309 0.641383 -0.717809
        0.245933 -1.64606 0.269802
        -1.06498 -1.58557 0.238931
        -0.858355 -0.505253 0.780708
        -0.00247494 -1.95735 0.405967
        0.916989 -3.14203 -0.470653
        0.293226 -3.12955 0.502855
        1.57113 -2.02814 0.630537
        -1.07523 -1.23669 0.699104
        -1.34473 -0.604768 0.516968
        0.116514 -0.770485 0.289708
        -0.619194 -2.51683 1.03511
        0.325793 -0.823138 -1.61414
        0.552392 -1.36504 0.467676
        0.341397 -1.13585 -0.215181
        -0.0941027 -1.37045 -0.0214907
        -0.0381387 -0.487015 0.932372
        -0.683787 -2.3542 0.764736
        -0.0478766 -2.59982 0.480404
        -1.10865 -1.708 -0.264151
        0.0432386 -0.851121 0.658291
        0.968873 -2.15809 -0.219451
        -0.682436 -0.742731 -0.246952
        -0.981091 -0.833919 -0.118444
        -0.113628 -1.27103 1.5261
        0.119995 -1.66402 -0.0839894
        0.241519 -0.931785 0.292963
        -0.411679 -1.62401 -0.0900804
        0.18537 -1.87434 0.966668
        0.396287 -1.46444 0.49041
        -0.0871701 -1.51771 -0.396756
        0.355688 -0.865098 0.641346
        0.206364 -2.49898 0.325361
        0.167486 -1.51048 -1.07468
        0.168955 -0.844515 -0.0978037
        0.114379 -1.45174 0.328776
        -0.60662 -0.0326225 0.457984
        0.0618144 -1.26636 0.590722
        -0.813943 -2.10251 1.10481
        -0.493264 -1.00294 -0.490005
        0.14525 -1.44802 0.264076
        1.18968 -1.86355 0.0102679
        -0.185092 -1.5114 0.65361
        0.466864 -1.19578 0.194476
        0.057931 -3.04724 -0.426938
        0.00828086 -0.989979 -0.990512
        0.148955 -2.01605 0.00259911
        0.13138 -1.86006 -0.265134
        -0.721793 -2.16799 -0.251381
        -0.720671 -1.55069 -0.861222
        -0.566932 -1.94675 0.536971
        -0.512471 -0.657162 -0.81948
        0.0758447 -0.355641 0.296196
        -0.481606 -2.09413 -0.748073
        0.0916243 -2.65177 -0.275653
        0.052573 -1.40163 -0.438382
        -0.478602 -1.7701 -0.163576
        0.0676474 -2.03094 0.831717
        0.261785 -0.382459 1.196
        0.0975055 -1.94249 -0.611395
        2.00461 -1.3147 -0.278878
        -0.078819 -0.880694 -1.20327
        -0.59262 -1.26544 0.300238
        -0.619344 -1.01972 0.450981
        1.69773 -2.28666 0.99682
        -0.48474 -1.86772 0.947013
        -2.07335 -1.90751 -1.05204
        0.33023 -0.451311 0.102244
        -0.389494 -1.19785 -0.0946474
        0.871667 -0.50322 0.383232
        -0.11968 -0.692882 0.0698816
        0.357661 -0.945154 -0.767834
        0.124092 -0.94845 -0.267613
        0.0729528 -1.45338 0.180217
        -0.18777 -2.06591 0.371642
        -0.679579 -2.07518 -0.163675
        1.19939 -1.07617 0.559719
        -0.29222 -1.88541 -0.560258
        0.754365 -1.936 -0.709676
        0.0739645 -1.05209 -1.18511
        -0.300987 -2.74535 0.00561789
        -0.847417 -0.0316344 0.547747
        0.550227 -1.0293 0.522954
        0.126883 -0.880531 -0.574102
        -0.238822 -1.48125 -0.100767
        -0.70861 -0.607934 -0.530626
        -0.265967 -2.19576 0.98653
        -0.0126907 -0.662062 -1.72597
        0.592689 -1.18123 -0.561861
        -1.24602 -1.87588 0.403093
        -1.7391 -2.49105 0.411134
        0.256736 -1.28126 -0.486124
        0.987504 -1.68297 -0.33
        0.452647 -0.0924477 0.869108
        -1.32742 -2.93516 -0.351498
        -0.309363 -1.86052 -0.0571888
        -0.967715 -1.18144 -0.515482
        0.846821 -1.50894 0.0720531
        -0.0514684 -1.72049 0.541043
        1.13351 -1.7276 0.386802
        0.235405 -2.81317 -0.417312
        0.0829188 -1.11758 0.318011
        0.108094 -1.7569 0.328314
        0.135664 -1.5394 0.00725697
        -0.287605 -1.41892 0.668886
        -0.706017 -0.448171 0.718283
        -0.771567 -2.77328 0.205631
        1.19335 -1.62079 -0.207313
        0.457686 -1.63872 -0.292461
        0.951844 0.254569 -0.218045
        0.466105 -2.67822 -1.55826
        1.43396 -1.22321 0.345272
        1.41036 -0.69598 -0.132968
        -0.970294 -1.17622 -0.29458
        -0.351666 -2.04343 0.837737
        0.793892 -1.68584 -0.455014
        0.489018 -1.45384 -1.15381
        -1.27344 -1.5952 -0.210516
        0.413561 -2.12804 0.341747
        -0.53498 -0.93261 1.23689
        0.179517 -2.37233 0.402484
        1.53547 -1.76408 0.765412
        -0.293945 -0.0962337 -0.545847
        0.656842 -2.02776 0.958809
        0.108148 -2.39867 -0.0887613
        0.537849 -1.25145 0.100101
        0.57119 -0.205713 -0.547148
        0.481222 -1.23833 0.402955
        -0.180311 -0.363506 -0.257475
        1.74004 -2.01484 1.44873
        -0.667028 -1.48929 -1.35245
        1.4315 -1.62177 -0.0212396
        0.260454 -0.429742 0.201774
        -0.534856 -1.44311 -0.185952
        -0.102176 -1.85477 -0.0783454
        -0.451276 -1.33236 -0.145413
        0.749368 -0.550045 0.493908
        -0.455261 -1.09588 0.962376
        -0.153445 -0.721179 -0.841763
        1.26802 -1.43454 -0.673309
        -0.909135 -1.75598 0.798554
        -1.73641 -2.24773 0.983939
        -0.330761 -1.86602 0.231192
        1.10458 -1.21889 -0.0694373
        1.93242 -2.14779 0.536925
        -0.860688 -1.21841 1.20804
        0.0918152 -2.85256 0.628467
        1.38587 -1.61825 0.508272
        -1.33533 -3.21846 0.28984
        0.832669 -0.450391 -0.0486358
        -0.611674 -1.17873 0.275363
        1.09552 -1.70756 0.467725
        0.121559 -1.38857 -0.718988
        -0.0959519 -1.6571 0.728613
        1.55432 -2.10638 0.0228406
        -0.677439 -1.99599 -0.917745
        -0.659748 1.30993 0.0632223
        -0.875341 -0.0397174 0.292221
        -0.568932 -1.86954 -0.176336
        -0.524204 -2.29007 -0.636699
        -0.410701 -1.55994 -0.180631
        0.0854026 0.874 0.116027
        -0.181387 -1.12909 1.26086
        0.904114 -1.90461 0.132345
        -0.623815 0.606052 -0.616966
        -0.582441 0.318567 -1.02457
        -0.664793 -1.23422 1.3155
        -0.916847 -0.0177413 -0.00980061
        0.479996 0.194929 0.594513
        0.0245892 -2.71098 -0.150316
        -0.182588 -2.01795 1.23952
        -0.391286 -1.15867 0.869682
        0.0506517 -0.19591 0.0803771
        1.18564 0.395616 0.190481
        -0.542782 -1.20413 1.05773
        -0.330593 -1.02849 0.608618
        -1.6531 0.280536 -1.09801
        -1.53032 -0.0849813 -0.296917
        -0.914448 0.135041 0.83178
        -0.116864 -0.187228 0.523538
        -0.190491 -0.526182 -0.535787
        0.223046 0.43949 0.0145863
        -0.224589 -0.224006 -0.0410531
        -0.613364 0.491882 0.547214
        -0.662755 0.555997 0.139559
        -1.24389 -0.795905 -0.622247
        -0.683868 0.707965 1.66647
        0.418554 2.47412 0.359757
        -0.127465 0.369808 -0.0970061
        -0.0899132 0.108735 0.366029
        0.244489 1.38234 0.56325
        0.266046 1.35401 -0.48443
        -1.09715 0.583444 -0.462123
        -1.34376 0.0210095 1.82107
        0.795185 0.812298 0.66062
        -1.30555 0.854221 0.320943
        0.91229 1.19335 0.249502
        0.375859 0.855392 0.247624
        -0.0797675 -0.556555 -0.493932
        -0.689616 0.560692 0.451751
        -0.69992 0.595109 -0.411263
        0.917003 0.787919 0.320817
        -0.458406 0.539495 -0.0376357
        -1.9152 0.668453 0.804115
        0.997741 0.197003 -0.0105139
        1.25696 -0.132759 0.193721
        0.160417 -0.519211 0.247051
        1.1418 0.753397 0.280582
        -0.359753 -0.410988 -0.585286
        -0.52008 -0.272034 0.753372
        0.655183 1.27536 -1.12349
        0.312637 0.86513 0.417074
        1.1227 0.236976 -0.590169
        1.8523 1.8406 1.32867
        0.767837 2.03484 0.405819
        0.510015 2.12317 0.600549
        -0.620122 2.00153 0.942282
        -0.502328 0.300632 -0.69248
        0.0339109 1.24125 1.50913
        0.12344 -0.218606 -0.790692
        -0.353947 0.405567 0.0988124
        1.06732 -0.0151397 -0.919289
        1.11686 2.12126 0.125391
        -0.15763 1.44998 -0.787377
        0.115289 0.610754 0.488201
        0.442779 0.335986 1.09989
        0.353311 -0.269099 1.48386
        -1.28547 1.08517 0.50738
        0.702228 0.200287 -0.111719
        -0.493049 0.452091 -0.755507
        -0.890947 1.6043 0.199307
        -1.44939 1.83112 0.478417
        -1.16547 0.343474 -0.699525
        -1.24297 2.24193 0.256029
        -0.324932 1.36278 -1.16933
        0.605448 1.11778 -0.39541
        -0.689571 0.505968 0.931031
        -1.06532 0.879943 0.836801
        0.494563 0.794187 -1.50641
        0.332283 1.1419 -0.949937
        0.956531 1.65939 -1.08412
        1.0619 -0.214582 -0.0810076
        -0.743696 1.14917 -1.12847
        -0.198514 1.39086 -0.940897
        -0.888839 1.05197 -1.62651
        -0.282912 2.77588 0.473202
        0.669496 1.58081 0.330806
        0.515715 0.693379 -0.729315
        -0.0185358 1.1116 -0.0280043
        -0.239233 0.286238 -1.19219
        -0.697343 2.19329 -0.191279
        -1.83663 1.57368 -0.517499
        1.03967 0.829212 2.18833
        -0.685548 1.98769 -2.27381
        -1.01787 0.727849 0.232502
        0.156254 1.82721 -0.773884
        0.100923 2.49863 0.404027
        0.182949 2.19386 1.05814
        0.253827 0.546492 -0.085984
        -1.00403 1.1544 -0.57483
        -0.380235 1.06608 0.204709
        -1.07337 1.51518 1.25481
        -0.0333068 0.83459 -0.356165
        -0.205417 3.07813 -0.298399
        0.325535 1.25156 0.0400193
        -0.369193 2.02732 1.00326
        0.95932 1.0911 0.940523
        0.145776 2.13139 -0.796884
        -0.552346 1.20414 0.360482
        -0.00199384 1.42753 -1.30601
        0.317679 1.11834 0.842578
        0.0330253 1.01031 2.12725
        0.146843 0.883483 -0.334237
        0.22009 0.881507 0.601366
        0.406187 1.20193 0.277796
        -0.799316 0.588594 0.0185873
        1.27916 1.16809 0.71419
        0.537373 -0.416119 -0.0432441
        -0.47823 2.04315 -0.923233
        0.19706 2.1923 0.774407
        0.0440819 1.6015 0.754561
        0.440374 1.15696 0.822163
        -1.07861 0.450561 0.648997
        0.104152 1.89585 0.635655
        0.0595569 1.39434 -0.629543
        -0.348202 1.51982 1.01445
        1.1269 1.28258 1.02594
        0.519447 1.67537 0.492762
        1.32684 1.25817 -0.637163
        0.893264 1.04897 1.08267
        -0.644638 2.15629 0.0218907
        0.519544 1.87275 -0.396037
        -0.918016 1.70433 0.181681
        0.445244 0.777155 1.3785
        -0.401318 0.771739 0.165336
        -0.652258 1.16743 0.494619
        1.21985 1.12525 -1.19187
        -0.790046 2.1447 -0.561355
        0.544942 1.07534 0.147367
        1.75639 1.23977 0.842246
        -1.15854 2.01364 -0.884737
        -0.923846 0.787407 -0.0631166
        -0.439356 1.4471 0.931232
        -0.330759 1.95139 -0.145988
        -0.00101502 0.841256 -0.250089
        -0.984592 1.99283 -0.171869
        0.0352886 1.89884 0.284594
        -0.68339 1.85564 1.26986
        -0.477869 2.06147 0.979083
        -0.219765 1.11341 0.505483
        0.101697 1.29851 0.0646065
        0.661471 0.637636 -0.677553
        -0.107328 1.14031 -1.5558
        0.0321011 0.241438 -0.441874
        -0.69706 1.28559 -0.518823
        -0.0585654 1.72697 0.724925
        0.0158613 1.19475 -0.142801
        -0.977188 0.930456 -0.689558
        1.00768 2.40851 -1.43059
        -0.824539 0.637558 -0.138886
        0.140614 0.921232 0.584695
        -0.724888 -0.18753 0.717673
        0.000366654 2.26088 1.24052
        0.589605 1.54655 -0.307424
        0.0487151 2.3595 0.016277
        1.54906 2.13099 0.80694
        -0.798107 1.58751 0.8218
        0.382776 1.78437 0.383179
        0.162105 2.09455 1.15419
        0.227484 1.51184 0.0945745
        -0.603934 2.60287 -0.36566
        -0.573043 1.5994 0.36887
        0.826837 1.03434 0.358098
        -0.671818 0.72199 0.391319
        1.26819 0.207954 -0.761518
        1.19917 2.95993 0.165936
        0.222537 1.83533 -0.426515
        0.113348 1.99624 -0.609251
        0.819537 1.54455 0.166938
        0.0784468 2.1691 0.28916
        0.0309865 0.958396 1.1096
        0.301738 0.440219 -0.255536
        -0.525884 0.624751 -0.698432
        0.440015 1.449 -1.03613
        -0.563962 0.912406 1.04034
        -0.918295 0.513357 -0.608373
        0.26129 1.96921 -0.516831
        -0.21841 1.01974 0.0089567
        -0.632483 1.48504 -0.48921
        0.985067 0.188967 0.429467
        -0.132182 2.86758 0.787863
        -0.368118 0.821977 -0.477508
        -0.264545 1.11573 0.613612
        -0.556986 1.61693 0.322822
        0.202019 0.254941 -0.14955
        -0.436856 2.1389 0.048018
        0.981967 1.32613 -0.283644
        -0.323927 1.09942 0.392263
        -0.51244 0.341691 0.207491
        -0.533804 2.7924 -0.0603287
        -0.176829 0.685204 -0.617101
        0.829145 0.760459 -0.448821
        0.858843 2.16901 0.297737
        0.474268 1.46479 -0.350271
        -0.580599 0.501098 -0.0892713
        -0.246382 1.82549 -0.133861
        -0.846926 1.50806 -0.292181
        0.0767669 1.22283 -1.56715
        -0.389094 1.66988 -0.499143
        -0.08914 1.27785 0.743248
        2.00315 1.16591 -1.63688
        -0.435513 0.635983 -0.274361
        0.712904 2.5402 0.278263
        0.217236 1.06073 0.134017
        -0.462384 2.05108 -0.7375
        -0.403344 2.13737 -0.0414229
        -0.0697568 1.70377 1.04636
        -0.643349 1.45259 -0.310901
        0.265097 1.62743 -0.647985
        0.280024 1.78183 -0.107345
        0.184722 2.68768 0.367629
        -0.094657 -1.24757 -0.303244
        1.01551 -1.08439 -0.760977
        -0.538821 -0.698512 0.331936
        -0.30284 -0.67235 0.368657
        -0.943773 -1.21016 -0.0802868
        0.260444 -0.935279 0.065877
        -0.552482 -0.983946 0.159269
        0.306671 -2.63654 -1.23584
        -0.416184 -0.962738 -0.428108
        -0.759793 -2.43986 -1.26954
        -1.03985 -1.51833 0.0279372
        1.036 -1.26702 0.179586
        1.00587 -1.08981 -0.00495272
        -0.254352 -1.2418 0.0677291
        1.2262 -2.63988 -0.381295
        0.534571 -0.560465 -0.0951636
        -1.79047 -1.23986 -0.0851164
        -0.189289 -1.12367 0.148371
        0.344749 -1.15144 0.293564
        0.605531 -1.98212 -1.12842
        -0.0806573 -0.958662 -0.475621
        -0.344123 -0.863235 0.51628
        -1.01771 -1.16678 -1.4854
        -0.490436 -0.969645 -0.418891
        0.315783 -1.89648 0.00673464
        -0.321053 -1.11545 0.662359
        0.117527 -0.528365 -0.0827057
        1.27343 -0.497557 -0.488373
        0.181064 -1.34249 0.381777
        -0.700651 -1.35301 0.722502
        1.01194 -0.614634 -0.00848818
        -0.624688 -0.824087 0.210768
        -0.546537 -0.302018 -0.3941
        -1.19587 -0.632475 -0.397277
        -0.123975 -2.39569 -0.137906
        0.415609 -0.507152 0.712903
        0.132601 -2.34787 0.295273
        -2.08831 -2.24036 -0.199866
        -0.371734 -1.36106 0.314215
        -1.48024 -2.44378 0.538067
        -0.0918393 -1.20016 2.17561
        0.359486 -1.87727 -0.320817
        0.115357 -2.1431 0.639892
        -0.569086 -1.59873 -0.854657
        -0.342542 0.00786361 0.902917
        0.445122 -1.23954 0.127965
        1.49795 -1.40095 -0.347363
        -0.483151 -0.560827 -0.391502
        -0.392791 -1.75068 -0.15596
        -1.17488 -0.780102 1.56457
        -1.08029 -2.04828 -0.0869256
        0.673783 -0.430116 -0.725939
        0.899004 -0.828063 -0.239423
        -0.0200103 -0.654775 0.407015
        0.299737 -2.56242 0.899824
        1.23002 -1.52078 -0.366555
        2.19647 -2.02412 0.0322964
        -0.202559 -1.52856 -0.137462
        0.70182 -1.99964 0.0177946
        -0.0270478 -0.610475 1.16812
        1.38879 -0.318047 -0.286153
        0.865538 -0.382995 -0.591341
        0.600542 -0.370605 -0.970195
        -0.702485 -1.24509 -0.149945
        -0.372944 -1.04546 -0.280045
        0.780375 -2.05524 0.73469
        -0.631949 -1.34624 -0.702384
        -0.853537 -1.13861 -0.821951
        0.993339 -1.64054 -1.5576
        -1.16918 -1.34338 -0.384854
        0.158248 -0.978817 0.177833
        1.21667 -1.77184 0.288764
        -0.104711 -1.4525 0.328345
        0.786185 -1.32902 -0.39166
        -0.0795126 -2.18961 0.606478
        -0.300588 -1.05204 0.094875
        -0.379838 -1.36531 -0.285861
        -0.259051 -1.42934 -0.00659757
        0.48035 -1.75107 -0.0739936
        0.0568922 -0.560165 -0.257176
        0.101243 -2.20267 0.390809
        0.598284 -1.50099 -0.0694872
        -0.588596 -1.90091 0.817326
        0.475643 -0.597899 0.0550033
        -0.89589 -1.58712 -1.61342
        -1.25189 -2.30439 0.83342
        0.774587 -0.786954 0.500393
        -0.0944786 -1.29408 0.106973
        0.296787 -1.04219 -0.702932
        0.205558 -0.624629 -1.22654
        0.200134 -0.589439 -1.40544
        1.25739 -1.93407 -1.18993
        -0.0538456 -3.16329 0.535092
        -0.291142 -1.0714 1.14493
        -0.299964 -0.690633 -1.24589
        1.62598 -0.986161 -0.325317
        -0.465893 -2.16145 -0.378111
        -0.419598 -1.94169 0.565734
        0.0175024 -1.38528 -0.33769
        -0.0355122 0.122262 -0.626791
        0.0248601 -0.970622 0.773165
        0.721555 -0.698564 1.18488
        -1.24553 -0.997078 -0.213297
        0.000356655 -1.73526 0.397697
        0.766146 -1.01852 -0.834489
        -0.333363 -1.73001 -0.262453
        -0.196634 -0.739389 0.098776
        -0.0211922 -1.1026 0.512525
        0.116265 -1.20769 0.887853
        1.44466 -1.16398 -0.676172
        -0.552304 -0.906606 -0.617794
        0.27483 -2.24829 -0.294908
        0.336143 -1.44673 -0.819747
        -1.06103 0.501972 -1.12701
        -1.38623 -0.377096 0.381256
        0.337067 -2.29328 1.06501
        -0.192505 -0.355768 -0.0666351
        0.121302 -0.717563 0.0977377
        -1.01142 -0.732184 -0.197389
        1.12724 -0.303652 -0.507565
        0.629943 -0.610262 -1.01795
        -0.0285175 -1.14128 -0.616587
        -1.32543 -1.97713 1.69464
        -0.297125 -0.653111 -0.95748
        -0.590237 -0.154673 0.0222619
        -0.426894 -1.24378 -0.313059
        -1.14685 0.50914 -1.34349
        0.450583 -1.7908 -0.612098
        -0.617869 -1.37532 0.472968
        -0.568411 -1.88213 0.0664495
        0.105791 -2.14247 0.284701
        0.794656 -1.34883 0.785019
        0.288635 -2.06422 -0.81854
        0.129989 -1.20318 -0.447541
        0.539499 -1.22377 0.190374
        0.526635 -1.93265 -0.328443
        1.79388 -0.831385 0.329511
        -0.431754 -0.199635 0.576244
        1.45458 -0.800323 0.132679
        -0.938512 -1.01516 0.103654
        -0.990447 -1.65299 -0.722108
        0.918775 -1.927 -0.511751
        -1.51034 -0.267387 0.1172
        1.71459 -2.24099 1.04754
        0.486916 -2.18916 1.52125
        -0.477214 -1.41703 0.571489
        -1.06154 -2.40511 0.980116
        -0.0149666 -1.93336 -1.7954
        -0.511858 -1.55021 0.743356
        0.602028 -2.42243 1.31248
        0.449994 -0.977746 -0.964552
        -0.793956 -0.630168 0.0367426
        0.9043 -0.447917 0.350559
        0.031977 0.0428961 -1.1251
        -0.0947208 0.291491 -0.463255
        -0.0972065 -0.662054 -0.355374
        1.19181 -0.981195 -1.4555
        0.805106 -1.55525 0.469466
        0.37077 -0.0363629 0.544568
        -1.87925 -0.920544 -1.53671
        -0.61536 0.677548 -0.721785
        -0.152096 -1.58263 -1.31511
        -0.407789 -1.79165 0.0168554
        1.87195 -0.322701 0.121188
        0.550907 -0.394562 0.0263047
        0.190895 -0.577381 -0.606229
        0.225853 -0.139454 -0.0718733
        -1.32589 -1.1986 -0.725277
        -0.00278667 -1.8603 0.373375
        -0.189485 -1.20109 0.155428
        0.0803418 -0.570344 0.273565
        1.4331 -1.22643 -0.739377
        0.665197 -0.639293 -0.550908
        0.825293 -0.225104 -0.311576
        -0.416844 -1.71653 -0.0189256
        -0.051467 -0.0909514 -0.406176
        1.48255 -1.22631 0.0937674
        1.2164 -1.60037 -0.358523
        0.276302 -0.789267 0.55385
        0.882537 -1.0505 -0.412539
        -0.17122 -0.702839 0.368816
        -0.383002 -0.56805 0.0502542
        -0.267495 -0.730929 0.611039
        -0.686854 -0.818796 2.34993
        -0.440704 -0.15552 -1.78422
        0.645189 -0.464761 -0.117401
        0.777239 0.144045 0.277148
        1.42982 0.154613 -0.753756
        -0.959882 -1.19091 0.796726
        -0.538003 -1.1975 0.356673
        -0.965943 0.165986 0.656378
        0.148412 0.326177 -0.205992
        0.526699 0.460012 -0.166163
        -0.30128 -0.556818 0.634206
        1.11888 0.749893 0.0524774
        -0.702717 0.682229 -0.3336
        0.183418 -0.0794035 -0.388513
        0.521935 -0.428419 -0.259414
        -0.0237859 0.207045 0.902035
        -0.934603 -0.021792 0.933747
        0.844242 0.878221 1.43797
        1.10522 -0.697364 0.476294
        0.310092 0.602679 0.584154
        0.807356 -1.35918 0.524808
        0.466738 0.650487 0.493151
        -1.18651 0.479 1.16414
        0.0830427 1.42122 0.427195
        -0.232106 1.83664 -1.37631
        -0.0670736 1.30083 0.134207
        0.266261 0.230312 0.630275
        -0.514521 1.28992 0.428873
        0.723774 1.61217 -0.592406
        -0.0848171 2.07153 -1.56629
        -0.149744 1.53766 -0.747506
        -0.564164 1.48499 0.489509
        1.15958 2.74995 0.904309
        -1.19476 2.41775 0.727288
        0.0566706 1.26459 -0.597787
        -0.376645 1.81468 -0.411835
        0.737303 1.91873 -1.12047
        -1.07872 0.260075 0.537964
        -0.713987 1.85009 0.114509
        -0.808606 0.855762 -0.48293
        0.385064 0.975211 -0.342964
        -0.490193 1.80348 -0.0838776
        -0.546485 2.50594 -0.366053
        -0.525854 1.20456 -0.92287
        -0.286679 1.99157 0.770385
        0.647711 1.05628 -0.9935
        0.206647 1.54061 0.851617
        -0.196571 1.13989 0.330528
        0.53053 2.69544 1.77932
        -0.460751 1.9022 0.192058
        -2.13238 1.57871 -0.486599
        0.266427 0.945678 0.435671
        -0.60942 2.00665 0.574684
        -0.111465 2.42758 0.481378
        0.34351 1.46856 0.137845
        1.5436 2.62445 1.02079
        -0.443844 -0.192259 -0.0172938
        0.394474 0.683994 -0.0169559
        -0.0341376 2.25546 -0.407167
        -1.71343 1.60181 -1.38779
        0.282707 1.55436 0.776574
        -1.50882 2.01056 0.59992
        1.65333 0.965845 1.22735
        -0.130867 1.5724 -1.23956
        0.543918 2.31398 -0.156699
        0.488497 0.0790384 -0.0109121
        0.157232 1.15613 0.412264
        -0.916982 2.83171 0.891063
        0.403946 1.45664 -0.557575
        -1.14021 0.584766 0.162489
        0.444099 1.36846 -1.30288
        -1.12374 1.30806 0.19212
        1.04196 0.287842 -0.185796
        -1.46552 2.09892 -1.3298
        -0.288009 1.03879 1.29944
        0.155795 1.10545 -0.183368
        -0.460449 2.8926 -0.257522
        0.331873 1.10217 -0.776028
        -0.82406 1.16474 0.176434
        1.10767 0.893313 -0.338123
        -0.0926563 1.11055 0.269205
        0.623442 1.66754 -1.14326
        -0.5937 2.80301 -0.931407
        1.07409 1.1065 0.313448
        0.16343 2.32235 -0.139353
        -0.21557 0.248477 0.372667
        0.990044 0.747917 1.08036
        -1.22617 1.38406 0.0466294
        -1.35419 1.1628 0.244705
        -0.3925 1.64779 1.14296
        -0.710575 1.27604 -0.467585
        0.222671 2.0251 0.899148
        -0.0383024 2.56638 1.1885
        0.406746 1.48049 0.435496
        -1.31359 1.14544 0.125148
        -0.621152 1.97499 -0.737714
        -0.96171 -0.00261473 -0.914636
        -0.725179 2.76113 -0.0152296
        -0.305319 1.48866 -0.326478
        -0.234428 0.403188 -0.0595953
        -0.440352 2.17366 -0.852398
        -0.607259 1.90496 -0.218825
        0.410497 1.3131 -1.35871
        -0.150757 1.09492 0.123272
        1.20746 0.693807 0.65586
        -0.130114 1.7532 -0.278994
        0.650367 1.81519 0.103601
        -0.649116 2.78308 -0.421425
        -0.129094 0.279011 -0.241314
        -0.475774 2.04378 0.647815
        -0.100776 1.95686 0.236835
        0.540576 1.33859 -0.285878
        -0.321043 1.78993 0.157302
        0.690342 1.0728 -1.18607
        0.541861 -0.101829 -0.812487
        0.750787 1.80853 -0.0454178
        0.0803419 1.42886 0.656763
        0.125171 2.44616 -1.3309
        -1.32847 0.457448 -0.498224
        -0.841879 1.14602 1.21695
        0.919757 1.47138 0.274255
        -1.0278 1.07172 0.000862056
        -2.70399 2.12348 0.0462167
        1.94473 2.01406 -0.788584
        0.0914159 0.964188 0.54103
        -0.477958 1.73876 -0.310641
        -0.611443 1.42588 -1.26747
        0.97162 0.459533 -0.5634
        0.370868 0.994344 -0.644968
        -0.756201 0.823358 0.113882
        0.907198 0.43475 1.12035
        -1.04692 1.68827 -0.509431
        -2.24461 1.72506 0.584374
        -1.54939 0.942386 -0.359625
        0.186074 1.91327 -0.824284
        0.954055 0.822977 -0.451926
        -0.989473 0.679469 1.16422
        -0.235681 0.779969 0.230565
        0.491594 2.24393 0.260958
        0.937494 1.65313 -0.434319
        0.333123 1.78047 -0.28596
        1.6205 1.88928 -0.420975
        -0.885083 2.19821 0.0626054
        1.51439 2.47365 0.639649
        -1.61564 0.824678 -0.410492
        0.180682 1.25505 -0.337408
        -1.04638 0.445312 1.11185
        -0.283409 0.619509 -0.345038
        0.502037 1.41461 -0.0835736
        0.420597 1.20923 -0.587607
        -0.910899 1.29389 -0.361703
        0.832351 0.886673 -0.0121322
        0.108466 0.0306195 -0.301714
        -0.737105 1.32629 0.561329
        -1.40821 1.48105 -0.301503
        -0.575525 1.28141 -0.044258
        0.859537 1.90152 0.902833
        -0.331812 0.360626 -0.138223
        0.82133 2.22291 1.00007
        -0.901724 1.05532 -0.0607266
        -0.177718 1.16371 -0.143482
        0.401735 2.01666 0.583773
        0.661199 1.62038 0.703299
        -0.857682 0.517927 -0.116116
        -0.0841435 2.38282 0.627303
        -0.309918 1.16635 0.347741
        0.0562282 -0.116503 -0.266387
        -0.771351 2.11412 0.71649
        0.949514 -0.0434522 0.235582
        -0.881705 0.235919 -0.377909
        -0.897681 -0.736213 -0.117848
        -0.800611 -2.01905 -0.14516
        -0.0254843 -1.05237 -0.887947
        1.00255 -1.82357 -0.171148
        0.703701 -2.37865 1.00609
        -0.562263 -0.669545 0.379916
        -0.240683 -0.916854 -0.623186
        -0.00306915 -1.03863 -1.60981
        0.309829 -1.95499 0.331526
        0.29282 -1.44986 1.0251
        -0.130363 -0.431728 0.286466
        -0.786046 -1.33182 -0.793082
        1.18346 -2.03063 -0.288388
        -0.502913 -1.44651 -0.107886
        1.63857 -2.61173 0.327342
        -1.50751 -1.14932 0.552779
        -0.134105 -1.74016 -0.0374162
        1.0404 0.24256 0.652769
        0.111536 -2.31059 1.53966
        1.35057 -1.78777 1.01574
        1.00789 -1.28958 -0.526143
        0.0698155 -0.278999 -0.723511
        0.187434 -1.33858 -0.763607
        -0.307645 -1.43051 0.341396
        -0.353917 -1.99967 0.505616
        -0.162778 -0.66931 0.405956
        0.500213 -1.4304 -1.27734
        0.00512947 -1.59454 -1.03646
        -0.419566 -1.14128 -0.268358
        0.0248181 0.169693 0.0660631
        0.381686 -0.678139 1.39186
        0.844118 -0.597268 -1.08903
        0.457445 -1.41604 -0.973857
        -0.587263 -0.466136 0.186704
        -0.328156 -1.08905 0.279255
        -0.470452 -1.13728 -1.05432
        0.221115 -1.75246 0.148861
        0.491317 -1.04266 -0.21599
        -0.108466 -0.0306195 0.301714
        -0.563572 -0.911435 1.06343
        0.985193 -0.0447107 -0.618995
        -1.65333 -0.965845 -1.22735
        0.596955 -1.98667 -0.1036
        0.0128848 -1.66694 -0.517016
        -0.832351 -0.886673 0.0121322
        0.121887 -0.252121 0.0897204
        0.00433455 -1.86702 -1.5842
        0.629139 -2.2936 0.473478
        -1.09101 -3.23655 -0.525674
        -0.297857 -1.37845 0.421382
        0.78136 -1.67658 -0.89115
        -1.27322 -1.12168 0.378177
        0.178005 -1.49637 -0.0398388
        -0.213376 -1.0029 0.631353
        -1.50473 -1.27321 0.224241
        -0.711333 -1.35175 0.186716
        -1.97845 -0.488427 0.202013
        -0.452254 -2.49984 0.897023
        -0.914272 -1.90951 0.840007
        0.770925 -1.77171 -0.000553403
        0.98707 -0.995479 0.0401658
        -0.18914 -0.914254 -0.216549
        -0.0572459 -1.32274 0.0553852
        0.306114 -1.16351 0.521939
        -0.152068 -0.814334 -0.0378513
        0.719223 -1.069 0.384804
        -0.853195 -1.55689 0.974947
        -0.436935 -2.29263 1.08558
        -0.128427 -0.720523 -0.235682
        1.27888 -2.01271 -0.538834
        -0.417031 -1.51329 0.16691
        0.571737 -1.27525 0.910312
        0.341294 -0.802331 -0.465805
        0.239475 -0.561392 -1.69856
        0.535342 -1.60259 -0.647882
        0.96871 -2.3663 0.288916
        -0.0797204 -0.589602 -0.00166219
        -1.28391 -1.55877 -0.943373
        -0.237666 -1.62385 -0.307602
        -1.03192 -1.95792 -0.403763
        0.609222 -1.12862 0.764138
        -1.08328 -1.02742 0.73064
        -0.0849515 -1.48673 1.28087
        1.02347 -1.23282 -0.396686
        -0.155438 -0.501542 -0.29906
        0.789786 -1.76603 -0.527387
        -1.27113 -2.15611 -0.602491
        0.216718 -3.06117 -1.28866
        -1.45046 -2.42005 0.011258
        0.365062 -0.37499 0.488117
        -1.5282 -1.16916 -0.277453
        -0.0745459 -1.55423 0.393462
        0.561291 -1.52267 0.0944343
        -0.256668 -2.15563 -0.149381