<?xml version="1.0" encoding="UTF-8" standalone="no" ?>
<VTKFile byte_order="LittleEndian" type="UnstructuredGrid" version="0.1">
  <UnstructuredGrid>
    <Piece NumberOfCells="0" NumberOfPoints="1764">
      <PointData>
        <DataArray Name="velocities" NumberOfComponents="3" format="ascii" type="Float32">
        0.90896 0.0624255 0.10461
        -0.570328 -1.27163 1.22063
        0.626083 -3.12403 0.372018
        0.106218 -1.29243 0.553679
        0.918551 -1.74906 -0.596758
        -0.337081 -1.24131 1.73584
        0.310801 -0.341542 0.37405
        0.424492 -1.42584 0.18774
        -0.198856 -2.8492 -0.29199
        -0.567572 -1.20467 -0.73577
        -0.0448459 -0.305745 0.892846
        0.738393 -0.865029 1.23198
        0.0257643 -3.37123 -0.880044
        0.113956 -1.06692 -0.690722
        -0.295948 -0.52178 -1.28473
        0.461331 -1.39466 -0.329215
        -0.241882 -0.390902 1.02417
        0.0504948 -1.64474 -0.604028
        0.598257 -1.76395 -1.47975
        -1.57332 -1.69942 0.398771
        -0.162301 -1.06733 -0.594239
        0.559708 -1.0726 -0.092968
        0.808221 -0.821949 0.488162
        0.531382 -0.144714 0.376622
        0.0642974 -1.47481 0.137652
        -0.508897 -1.25393 -0.0921272
        -0.458221 -1.33065 0.2853
        -0.181261 -1.65374 1.12503
        -0.368879 -1.78069 0.126504
        0.0434266 -1.60247 -0.28204
        -1.91448 -1.20254 -0.574134
        0.101603 -1.23394 -0.391666
        -0.167558 -0.457413 -0.0638151
        -0.412863 -0.9089 1.07696
        -0.638546 -1.33195 0.660785
        -1.09766 -1.29581 0.572067
        0.108428 -1.28817 0.438574
        0.887061 -0.835229 0.500098
        0.544306 -0.80534 -0.982989
        -0.406355 -1.89665 -0.0987092
        -0.654181 -1.1463 0.463708
        1.10193 0.0322826 0.095223
        0.697411 -2.42532 -0.0363515
        -0.0711234 -1.54918 0.03498
        0.499311 -1.55324 0.389311
        -0.949881 -1.42191 -1.47
        -0.828104 -0.304221 1.26636
        -0.737284 -0.943243 -1.08003
        0.628668 -0.483481 1.30107
        1.34722 -1.19228 -0.301622
        -0.138205 -0.530833 -0.403199
        0.00710458 -0.606877 -0.252872
        1.37777 -0.0923661 -0.227137
        0.359758 -0.854374 -0.407315
        0.84311 0.0613522 0.8858
        -1.07658 -1.27871 0.482115
        -1.03374 -0.668255 0.153079
        0.171344 -0.920587 0.551551
        0.0331427 -2.78526 -0.609655
        -0.926091 -0.645105 0.73669
        0.774423 -0.93284 0.707749
        -0.975115 -1.43322 -0.422274
        0.148839 -0.416431 0.496858
        -0.00403325 -0.733755 1.13489
        0.410711 -2.16726 -0.299906
        0.715923 -2.30415 0.0845982
        0.740941 -2.6256 1.04887
        -0.19522 -0.279206 -0.531166
        -0.0578191 -1.27543 1.88438
        1.05984 -1.47208 -0.380558
        0.214659 -1.26837 -0.0912559
        0.118822 -1.94689 0.2882
        -0.915716 -1.84862 -0.395436
        0.0335972 -1.15792 0.118095
        1.14525 -1.29149 0.704985
        0.0455645 -1.11012 0.54022
        -0.275466 -2.14571 -0.265429
        0.826206 0.277653 0.751322
        0.479089 -1.65286 0.539072
        1.13999 -1.20714 -0.0584163
        -0.349674 -1.43119 0.102587
        -0.510301 -1.13016 0.726842
        0.10312 -2.00514 0.547768
        0.12423 -0.478151 0.0735805
        0.786882 -0.819522 0.857551
        -0.760842 -1.25227 0.482505
        0.865923 -0.729984 0.423547
        0.637737 -0.726158 -1.13102
        -1.18345 -0.361209 1.43488
        -1.66023 -1.333 0.477647
        -0.993377 -1.11791 0.908094
        0.00531933 -0.140279 -0.144034
        0.0780047 -1.30252 0.740278
        0.882284 -0.563786 0.420602
        0.245373 -0.619483 -0.921098
        0.661781 -0.21154 -0.597714
        -0.0807972 -0.511733 0.493397
        -1.35095 -1.88182 0.173078
        -0.383101 -0.802256 -1.90171
        0.433209 -3.03348 -0.697946
        0.496846 -0.631573 0.869321
        -0.295884 -1.12673 -0.107473
        -0.149599 -1.67152 -0.258061
        -0.175336 -3.02958 -0.220989
        -0.61579 -1.34097 1.35912
        0.917317 -0.768867 1.334
        -1.13574 -2.77972 0.429069
        1.19343 -1.42417 0.170112
        -0.384438 -1.90259 -0.618473
        0.997612 -1.62055 -0.175093
        -0.838242 -0.492163 0.391266
        -1.28723 -0.839624 0.0181929
        -0.603565 -1.083 -0.0971498
        -1.28738 -1.24582 -0.272361
        -0.998451 -1.73465 0.229768
        2.0172 -0.774459 -0.171938
        -0.346548 -1.91121 -1.65498
        -0.271695 -0.544579 0.321009
        0.323796 -1.34204 -0.839734
        -0.698571 -1.72941 -0.316484
        -0.0966113 -0.482959 -0.106933
        0.391954 0.683411 -0.593432
        0.0514543 -1.52363 0.147957
        -0.0838953 -0.516432 0.296134
        0.679842 -1.56961 -0.809244
        0.0325133 -0.576911 0.190122
        -1.02334 -0.992416 -0.656203
        0.835063 -0.102119 -1.05785
        1.27065 -1.34109 0.153638
        1.40307 -2.14853 0.122846
        0.176084 -2.66218 -0.820004
        0.990158 -1.03767 1.60559
        -0.0898254 -2.37905 0.0519669
        -0.335011 -1.10301 0.71593
        -0.284389 -0.531351 -0.132988
        0.339643 -0.69397 1.56765
        0.937409 -1.58052 -0.788151
        0.388521 -2.22545 -0.614612
        0.397446 -1.22332 0.496425
        -0.0176482 -0.0584974 -0.579948
        -0.195201 -2.04637 -0.282259
        -0.219397 -0.920633 -0.52244
        -1.36227 -1.88636 0.758897
        -0.0454738 -3.3144 -0.822445
        -0.0220739 -1.40374 -0.346889
        -0.845102 -1.27562 0.735081
        -0.0671881 -1.26647 -1.08197
        0.707979 -1.3236 -0.13382
        -0.843303 -0.729914 0.381492
        1.15605 -0.284243 -0.101378
        1.40774 -1.38949 0.925376
        0.47188 -0.724121 -1.09097
        2.00756 -0.730871 0.540776
        -0.363548 1.14478 0.626848
        0.670811 -1.18187 -0.593687
        0.751686 -2.52542 -0.169036
        -0.63577 -1.09142 -0.690014
        0.0770432 -0.672941 -0.00569256
        0.0152144 -0.404565 0.688079
        -0.581841 -1.28923 0.574142
        -0.688178 -1.22504 -0.31186
        1.1819 -1.15398 -1.12129
        -1.45593 0.0415246 0.479237
        -2.34797 -1.01573 -1.3524
        0.957163 -1.10002 -0.111094
        -0.134529 -0.834919 0.465048
        -0.508818 -0.506991 0.385728
        0.545525 -1.40022 0.965022
        -0.129591 -0.698815 0.941962
        -0.0836161 -1.3366 0.358698
        0.293536 -0.0162573 0.250165
        0.00752546 -0.716093 -0.453356
        0.801995 0.338196 -0.0866672
        -1.26766 0.780755 0.02158
        -0.559437 -1.65482 -1.48534
        -0.524131 -1.04404 0.476432
        -0.080273 -0.999364 -0.060594
        -0.517023 -0.742523 0.538433
        -1.62351 -1.06227 0.646073
        -0.141631 -2.75036 -0.28993
        -0.427536 -1.40079 -1.65334
        -1.12472 -0.547164 -0.38912
        -1.66926 -1.68046 -0.445725
        0.869333 -1.4601 0.338564
        0.784757 -0.321771 -0.100401
        0.333901 0.869281 0.729743
        -0.474096 1.4688 0.935594
        -1.06815 -0.602338 0.464126
        2.11405 0.589489 0.250782
        0.498109 0.472442 -0.769625
        -0.419338 0.00423349 -0.431454
        0.0463402 0.506648 0.994218
        0.259068 -0.13584 0.356246
        1.49446 1.1945 1.28318
        -1.09676 1.54681 0.589703
        0.0146598 0.512329 0.136556
        0.168936 0.100711 -0.205494
        0.814448 0.242872 0.808224
        -1.08747 1.76783 0.995655
        0.650511 -0.0100816 -0.624313
        0.0390424 2.16703 0.382322
        0.0223758 1.36702 0.204391
        0.17788 0.869318 -0.207885
        1.37669 1.12753 -1.24262
        0.0225141 0.163967 1.14535
        -1.05811 1.70126 0.163762
        0.41863 0.85893 0.342586
        1.21264 1.0604 1.10523
        1.7274 -0.138335 0.121994
        -0.619296 0.586484 1.72108
        -0.563305 2.33139 2.28574
        1.2586 1.766 0.805616
        -0.299268 1.55698 0.389151
        0.910803 3.43236 -0.492279
        -0.0629059 1.9325 0.335647
        -0.561083 1.38601 0.476501
        0.396921 1.73669 -0.339572
        0.184534 0.721642 0.854094
        -0.731465 1.85976 -0.29002
        0.391486 1.79163 -1.18543
        -0.815147 -0.193271 1.16952
        -0.370415 0.822212 0.796601
        -1.21579 1.39394 -0.382044
        0.4778 2.1212 1.48328
        1.112 2.25478 1.65544
        -1.17626 1.90404 0.65609
        -0.363398 0.829123 -0.213116
        -0.278361 1.79468 -0.439539
        0.641132 2.05244 -0.247025
        0.58914 0.518995 0.934874
        -1.18136 2.35134 -0.938877
        -0.201191 0.946979 -0.194138
        -1.13454 0.388821 -1.8376
        -0.450072 1.51465 0.225133
        -0.826401 1.13818 -0.201308
        -1.22165 1.83481 -1.24877
        0.0353789 0.970231 0.284231
        0.782379 1.30587 -0.284267
        -0.41985 0.553719 0.381309
        -0.549807 0.423303 0.742588
        -0.616927 1.48928 -1.1653
        -0.0748026 0.452892 -0.224249
        -0.90937 1.17353 0.968183
        0.389223 1.28346 -0.184445
        -1.69068 0.08563 0.428768
        0.0995633 1.31782 0.167195
        0.482897 1.71183 0.72773
        0.632929 0.551718 0.113678
        -0.44592 2.03222 0.519722
        0.960072 2.02881 0.676607
        0.789963 1.14391 -0.66836
        1.25563 0.873427 -0.172016
        1.34201 2.64808 -0.118801
        -0.981836 0.443469 0.71581
        0.167971 1.17246 -0.468549
        0.153841 1.43029 -0.379993
        0.877211 2.36601 0.104429
        0.0616911 1.59073 -0.0668914
        0.978167 1.23151 -0.939247
        0.118919 2.29383 0.630914
        -0.93038 0.848217 -1.13906
        0.8121 0.118229 0.384141
        -0.860578 1.76368 0.277375
        0.37523 2.46676 0.289434
        -0.173828 1.86478 0.97119
        0.499595 1.12127 1.04547
        0.272676 2.24356 0.0746821
        0.0895506 1.60307 -1.16081
        0.0635002 0.64073 -0.290884
        -0.726095 1.55382 -0.316625
        0.277564 -0.472759 0.796918
        -0.297811 1.51935 -0.587858
        -1.17388 1.37909 0.100883
        0.721317 2.06202 -0.872901
        1.31838 1.41998 0.669991
        0.124102 0.848522 -0.287955
        0.674007 1.32501 -0.0382694
        -1.0187 1.49287 -0.653517
        -0.753322 2.75952 -1.40572
        -0.176326 1.83256 0.0208411
        -0.422429 2.12675 -0.396493
        0.408309 1.48547 -0.643632
        -0.324985 1.76261 -1.46421
        -0.433755 0.697985 -0.710833
        0.0138466 2.45096 0.362006
        0.828677 -0.568974 0.832615
        0.393917 0.495907 -0.317984
        -0.243012 1.63506 -0.466922
        0.337601 1.85365 0.174739
        0.10341 2.2388 0.0701633
        0.249846 2.09274 0.117723
        0.160137 1.07222 -0.238647
        -1.22833 1.31038 -0.152046
        -0.452555 1.00096 0.376426
        -0.372284 1.79398 0.460531
        -0.579448 0.969045 -0.130689
        -0.2553 1.86711 -1.03887
        0.655407 1.54344 0.629284
        0.13314 1.96674 -0.354476
        1.13424 1.50201 -0.00823698
        -0.802665 2.22847 -0.378896
        0.162534 0.0411148 0.593862
        -0.964934 1.76848 -0.594102
        -0.362614 3.01999 0.480457
        1.47653 1.85252 -0.235126
        -0.925195 2.34692 -0.529947
        0.18549 1.61071 -0.061652
        -1.64535 2.20917 0.576066
        0.466701 1.32443 -1.40984
        0.143353 2.30776 -0.0642876
        -1.12474 3.25011 -0.380305
        0.621527 1.38739 -0.747048
        0.761437 1.13331 -0.293271
        -0.738008 1.92423 -1.31659
        -0.793634 1.48948 -1.22488
        -1.06489 3.00825 -0.376398
        0.333403 -0.032729 -0.295914
        0.907376 1.71937 0.13332
        0.763406 1.85183 0.561974
        0.241602 1.52457 1.07211
        0.303305 1.41242 -0.410972
        -0.933537 2.30428 -0.448355
        -0.542596 0.974989 1.16682
        0.0660094 2.47371 0.443169
        -0.233573 0.33218 0.183719
        0.964278 2.18797 -0.238379
        0.317797 1.44403 -1.47239
        -0.398583 1.94721 0.325159
        -1.14218 1.64498 0.01007
        0.687594 0.933564 0.4237
        -0.267375 1.14625 -0.65098
        0.0829672 0.641091 1.42244
        -1.24601 1.38939 -0.965678
        -0.678189 0.81906 0.128586
        0.523129 1.31984 -1.17963
        0.770891 -0.201087 0.789264
        0.533787 1.17202 0.872733
        0.861654 0.773722 0.653486
        -0.0669653 1.23164 -0.0197691
        0.23417 0.919386 -0.315026
        -0.470156 1.30721 0.578312
        0.737987 1.25933 -0.683624
        0.406398 0.266827 0.684942
        0.272433 1.68215 0.171305
        0.136419 2.15259 -1.36234
        0.413763 -0.192062 -0.0594234
        0.933174 1.10128 0.769137
        0.0852933 0.318447 0.384657
        -0.201185 0.149861 -1.08629
        0.452438 0.2431 0.216666
        -0.594897 0.393987 -0.465557
        -1.31059 1.59231 -0.92031
        -1.07276 0.73855 -0.811685
        0.0506923 1.89006 -0.65575
        -0.347015 -0.0153338 -0.0442147
        -0.190092 2.91786 -0.397215
        -0.57623 1.43344 0.397937
        -0.072852 1.27955 -0.477675
        0.573902 1.03354 -0.250822
        -0.0507593 1.71179 0.647562
        -0.512903 0.992496 -0.295277
        -0.917685 0.274037 0.299057
        0.240327 2.26737 0.742629
        0.954411 2.04617 0.330636
        -0.0127894 0.991718 -0.406602
        0.385532 1.73523 -0.30569
        -0.381373 -0.00169672 0.612578
        -0.522295 1.26343 0.773795
        0.186659 1.40298 0.645511
        -0.446692 1.57714 0.705806
        -0.422953 1.64034 0.336889
        0.00754185 0.980923 -1.54367
        0.397655 -1.29407 -0.648589
        0.256327 -0.0360742 0.82893
        0.197641 -1.01416 0.0361643
        -0.586125 -1.8695 -0.763614
        0.508837 0.174828 0.383863
        1.07089 -1.65403 1.33906
        0.298078 -0.563707 0.618871
        -0.796914 -0.881744 -0.0878556
        -1.14509 -1.37408 0.838196
        -0.191656 -1.32581 0.549618
        0.297949 -2.07979 0.480704
        0.093416 -1.95419 1.26376
        -0.272923 -0.942537 -0.737478
        0.133384 -2.50014 -0.356544
        0.712124 -0.800058 0.252471
        0.090212 -0.876141 -0.383704
        -0.28562 -1.38325 0.874988
        -0.00144824 -1.01615 -0.314631
        -0.690058 -3.00818 -0.872947
        -0.0857156 0.18302 -0.567207
        0.592288 -1.67327 -1.07363
        0.126411 -1.31097 0.721986
        1.32671 -1.2986 1.65745
        -0.0431856 -0.510771 0.943596
        -0.423986 -2.69473 1.07954
        0.151257 -0.343389 1.91715
        -0.267052 -2.76903 -0.174027
        -0.652256 -0.220351 0.620037
        -0.0242929 -1.89995 -0.418631
        -0.806912 -0.923541 -0.542409
        0.716777 -1.63574 -0.332317
        0.50647 -0.845318 0.0568562
        0.291566 -1.28051 0.340259
        -0.6254 -1.70554 0.10037
        -0.421547 -1.50585 -0.304337
        -0.189527 -2.05505 -0.0775857
        0.0292789 -0.614735 -0.34555
        -0.0214783 -0.460625 -0.288717
        -0.203025 -1.42474 0.684542
        0.347851 -1.9546 -0.573606
        -1.21701 -0.660642 0.267199
        0.786081 -0.803235 0.238821
        -0.136072 -2.16331 0.158621
        -0.720492 -1.87308 -0.0165035
        -0.00659755 -1.82722 -0.842955
        -0.77452 -0.39335 -0.615613
        0.185328 -1.90514 -1.06231
        -0.783192 -1.27446 0.0921854
        -0.755321 -1.08814 -0.302791
        0.825712 -1.14401 0.121138
        0.198442 -1.63497 0.0425948
        -0.639389 -0.966285 0.0178447
        0.241618 -1.61176 -0.38434
        1.6742 -1.53325 -0.098899
        1.41719 -2.47069 0.808435
        1.85059 -0.631043 -0.220452
        0.880615 -1.5338 -0.247801
        0.193352 -1.02887 0.0133383
        1.31622 -2.48728 -0.203819
        0.258576 -1.01224 0.912505
        -0.400154 -2.22029 -1.4222
        -0.584577 -0.405972 -1.39692
        -0.665064 -2.05505 -1.73303
        0.158631 -2.40185 -0.569836
        0.604789 -1.81333 -0.0251766
        -0.202193 -2.27465 -1.68651
        -0.188544 -0.792576 -0.116957
        -0.0624178 -1.27256 -0.91395
        0.413505 -2.22287 0.118097
        0.212992 -2.44354 -0.107959
        1.79311 -0.937787 0.183621
        0.061794 -0.9652 0.802198
        0.682531 -1.60284 0.0620245
        -0.0388075 -1.14133 -0.708008
        -0.528931 -1.30983 0.0183553
        0.681949 0.418386 0.471537
        -0.813374 -0.934429 -0.84087
        -1.32211 -2.37223 -0.228023
        1.02095 -0.636194 0.451588
        -0.267976 -2.67915 -0.856916
        -0.211789 -2.30932 0.296048
        0.580941 0.178112 0.584464
        0.735821 -0.502026 0.407165
        0.273837 -1.66612 -1.09054
        0.961581 -1.84369 1.11357
        -0.483787 -0.131105 0.175343
        -0.323163 -1.32849 0.0256105
        0.434135 -1.45024 -0.114536
        -0.190642 -0.8153 -0.110552
        -0.426684 -2.0277 -0.474588
        -0.348624 -1.32617 0.0455586
        -0.623625 -1.41488 -0.229278
        -1.07059 -0.990616 -0.505521
        0.612393 -2.44382 -0.749805
        0.896943 -1.57155 -0.0904341
        1.48695 -0.668243 -0.563542
        0.486337 -1.86619 -0.246403
        0.425828 -0.748931 0.734869
        0.528571 -1.93749 -0.589779
        -0.7888 -1.0269 -0.211951
        0.134193 -0.857489 -0.878915
        -1.13083 -0.833063 -0.0937534
        1.1008 -1.73072 -0.152961
        -1.6403 -1.45034 -1.00624
        -0.0722005 -2.08444 -0.977957
        -0.249752 -1.28417 0.771538
        -0.485948 -2.0979 0.468259
        1.01716 -1.11107 0.787546
        0.734828 -2.77367 -1.14162
        0.721174 -2.74327 -1.10512
        0.394199 0.0811042 -0.640819
        -0.57674 -1.15133 0.340418
        0.0825768 -1.4287 -0.573372
        1.06398 -0.562406 -0.495155
        1.84504 -1.36271 1.51627
        -0.891419 -1.84915 1.3077
        0.0797494 -1.6861 -0.95104
        0.599895 -1.5979 1.09592
        0.344048 -0.875286 -0.0696165
        0.992644 -1.85433 -0.379938
        0.630524 -1.7699 0.123072
        0.0442877 -0.152851 0.308126
        0.333136 -1.83586 -0.516122
        -1.26449 -2.09133 -0.572435
        0.645531 -1.92592 1.02317
        -0.643482 -1.05601 -0.787133
        1.30653 -0.484746 -0.232056
        -0.519405 -1.12266 -0.828197
        -0.66887 -2.12869 -0.591817
        -0.530235 -1.99301 -0.171844
        0.913601 -1.66711 0.389801
        0.253238 -1.68919 0.274891
        0.907718 -2.3257 0.761558
        -1.41086 -1.31502 -0.262831
        0.0901114 0.301692 0.4687
        1.3724 -0.867344 1.02757
        1.64857 -1.7568 -0.886724
        0.331381 -1.5863 -1.50909
        0.0247895 -1.8155 -0.0252183
        -0.411374 -0.711568 -0.176744
        -0.1275 -0.954349 0.35422
        -0.453357 -1.54004 -0.565438
        0.316666 -2.50387 0.417495
        0.0501905 -0.120214 -2.03184
        -0.18996 -0.999216 -0.583603
        -0.484219 -1.21703 -1.08361
        -0.838278 -2.41824 0.0553637
        -0.0260062 -0.261722 -0.646731
        0.355871 -2.15544 -0.262715
        -0.47802 -2.26616 0.596084
        -0.0730668 -1.44753 0.332799
        -0.00453122 -0.911644 0.41598
        -0.195596 -1.13699 -0.914133
        2.16886 -1.43062 -1.26512
        -0.654117 -1.05992 0.949174
        -0.176217 -0.904301 0.614503
        0.138305 -0.165273 -0.282782
        1.68267 -0.458187 -0.356895
        0.343304 -1.26754 -0.46439
        0.134602 -0.496306 0.0323507
        0.566511 0.279124 -0.583763
        -0.346634 -0.347381 -0.905243
        -0.450986 -2.37931 0.34309
        -1.19346 -0.10023 0.707395
        -0.775049 -0.70731 -0.418204
        -0.395772 -1.62998 -0.0531454
        -1.26198 -0.653532 0.527695
        -0.981133 -1.23399 -0.485185
        -0.917252 -1.21341 0.116009
        0.230727 -0.786992 0.353355
        -0.996289 -1.68392 -0.227082
        1.33797 -0.949779 -0.196141
        -0.560728 -1.93279 -0.456167
        0.470938 -1.24933 -0.490181
        -1.00467 -0.999331 0.0222222
        -0.176093 -1.00038 -1.18057
        -1.06066 -0.244098 -0.406428
        -1.51427 -0.527195 -0.6043
        0.563988 -0.311147 0.767249
        -0.178979 -1.24418 0.60391
        0.68705 -1.37659 0.0414005
        -1.77235 -0.0264478 -0.318763
        -0.207257 -1.68362 1.47003
        1.67197 -1.54906 0.283569
        -0.471852 -0.829226 0.481615
        -0.517403 -1.72509 0.160298
        1.87531 0.274436 -0.574851
        0.19448 0.0861719 1.09966
        0.454916 -0.370146 1.00316
        -0.571359 0.726922 0.0494671
        -1.00377 0.134323 0.782952
        -0.232631 0.381381 0.975845
        -0.16005 0.713707 0.0989513
        0.431961 0.717897 0.268758
        0.67961 0.134351 -0.367723
        0.933231 -0.0149766 -0.386839
        -0.944091 0.0707318 0.059347
        0.97884 0.960527 0.410692
        1.45982 0.95234 0.112108
        -0.875005 0.989745 -0.172462
        0.271974 0.522847 1.25166
        0.404196 1.83631 -0.646123
        -1.15982 -0.171793 0.755887
        0.162528 0.407374 0.104221
        0.619415 1.12426 -0.59357
        -0.637391 0.419727 -1.02023
        1.69647 0.564716 0.770987
        -0.0708185 0.0222581 -1.55649
        1.60266 -0.149464 -0.267418
        -0.430189 0.526618 -0.128499
        -0.367449 0.269953 -0.12148
        -0.834071 -0.17277 -1.92007
        -2.20393 1.89099 -0.87535
        1.4591 1.35114 0.456564
        -0.770842 0.537262 0.788153
        0.424493 0.876656 0.969345
        0.188728 1.78913 0.472613
        0.282948 0.755855 -0.506843
        0.0877565 0.12372 0.394279
        0.0694972 0.783586 0.558041
        0.543683 1.05521 -0.347939
        -1.03697 1.61222 -0.510723
        -0.449902 1.28435 0.451658
        -0.752349 0.793359 1.5392
        -1.23142 1.43431 0.656258
        0.260355 1.80746 0.507634
        -0.403714 1.24764 0.260927
        0.428212 0.775301 -0.0436236
        0.675088 1.78704 -0.729351
        0.56213 1.0147 -0.350394
        -2.00918 0.418912 1.90616
        -0.361263 3.2915 0.780465
        0.440726 1.06824 -0.320498
        1.09216 0.416627 0.880769
        0.458134 1.52287 1.43008
        -0.699865 -0.376079 -0.668935
        0.294348 3.34318 0.0634004
        0.304613 1.09234 0.49822
        -0.281154 0.224016 -0.698571
        -0.151212 0.842732 0.841915
        0.150326 1.38048 0.569366
        0.358869 2.41617 -0.0696378
        0.0925604 0.95859 -0.195967
        -0.115278 0.884187 -1.40676
        -0.598618 1.32052 0.409945
        -0.434489 0.314966 -0.789602
        -0.389304 2.48378 0.210045
        0.212602 1.89562 -0.327947
        -1.63853 0.647218 -0.118436
        0.311088 1.406 0.240236
        0.869995 0.883524 1.89751
        -0.631973 2.11514 -0.840986
        -0.429716 0.438695 -0.809952
        1.33477 1.33331 1.33865
        -0.286477 1.78453 0.879809
        -0.0914947 1.84758 0.208474
        0.479324 1.72491 -0.907892
        -0.15328 0.523624 0.641291
        0.0736457 -0.687564 0.746107
        -0.652737 0.470074 0.55969
        1.32234 2.93327 -0.467504
        0.0681795 2.13681 1.70674
        0.540051 2.34485 -0.764044
        0.0664195 0.622833 -0.939302
        0.743271 0.400627 -1.02764
        -1.0351 1.17993 1.78337
        1.53487 2.18232 0.273394
        -0.68971 1.86818 -0.442344
        0.826891 -0.0346319 0.771575
        -0.614389 -0.660968 -0.00439818
        0.360085 1.28631 -0.617081
        -0.233063 1.97807 -1.0383
        0.415783 1.16129 -0.151328
        -1.23209 0.721953 0.0769435
        1.31319 0.783431 1.08221
        -0.564315 2.50493 0.0572883
        -0.326511 2.0494 -0.815364
        0.85564 0.464452 0.520431
        0.0877604 1.26256 -0.459474
        0.63805 3.04455 0.0391134
        0.0829283 -0.857057 -0.0746597
        1.34808 0.946054 0.600409
        0.453708 1.24421 1.00946
        0.0642102 2.19605 -0.659743
        0.48608 0.802598 -0.916127
        0.146563 0.806967 0.466332
        -0.562237 2.83934 -0.390661
        0.913531 2.17791 -1.79181
        0.776968 1.26534 0.175178
        0.115423 1.24945 0.0768119
        -0.432244 1.11289 -0.565631
        0.24503 1.46601 -0.0350581
        1.53506 1.62604 -0.159141
        0.117222 2.31419 1.27415
        1.04776 1.40458 1.37222
        -0.163319 1.2768 -0.589479
        -0.0638172 0.344365 0.800803
        -0.507869 0.977663 0.556808
        -0.208655 0.345013 -0.395457
        -1.69268 1.22322 -1.12001
        -0.381564 2.3626 0.706836
        0.222923 1.07596 -0.357019
        0.963396 0.877371 -0.169338
        -0.44717 0.924456 0.05411
        -0.570592 1.2257 -0.0188726
        0.722459 1.21831 -0.162324
        -0.198569 2.22819 0.310212
        0.0336796 2.11448 0.377999
        1.3149 1.73593 -0.147186
        -0.386822 0.530694 -0.163741
        0.682216 -0.320796 1.21333
        -1.34877 0.895184 -0.15119
        -0.659222 0.943812 -1.08689
        -0.526356 0.658402 -0.248219
        -0.773751 1.94776 -0.676792
        0.225081 1.74797 1.04899
        -0.292772 1.41515 1.22244
        -0.150855 1.744 1.27033
        -0.345815 0.68091 0.259513
        -0.559443 1.97051 -0.0470577
        -0.396597 0.636302 -1.26434
        0.816411 2.1869 0.353841
        -0.841703 1.04502 0.0412432
        0.366564 1.32145 -1.0357
        -0.217255 1.15931 0.0957816
        0.3169 2.09539 0.716981
        -0.0339054 1.50024 -0.00123383
        -0.801553 1.9388 -0.93573
        0.51125 2.26605 -0.236553
        -0.904687 2.54953 0.618126
        0.88814 2.49638 0.156392
        -0.559789 2.83158 -1.11416
        -0.433614 0.295918 -0.303582
        -1.00382 0.102207 -1.36229
        -0.754684 0.825105 0.961251
        0.171383 0.657849 1.71709
        -0.0934248 0.958382 -0.699599
        -1.10162 2.02111 0.25648
        -0.51174 0.666016 0.757341
        0.62603 1.64847 -0.858415
        0.678717 0.689575 0.701368
        -0.35682 0.696378 0.751728
        -0.982866 2.08581 0.889449
        -1.05231 2.21109 0.129381
        0.781852 0.449105 0.883569
        -0.139097 1.21653 0.337935
        0.189113 1.147 1.32556
        -0.784604 0.928075 0.610663
        0.194979 0.97003 -0.0838286
        -0.410603 1.80291 0.0218681
        -0.563707 2.71508 0.807036
        -0.0555887 2.38456 0.586993
        -1.07935 1.86404 0.344724
        -0.556125 0.332122 -0.674772
        -0.675903 0.941266 0.11552
        -0.818466 0.729491 -0.723116
        0.621228 1.60897 0.07894
        0.0784041 2.17112 0.249407
        0.586875 1.24318 -0.825395
        -0.465363 2.03838 -0.439854
        -1.22078 0.447267 0.435453
        -0.45061 0.208276 0.114818
        -0.957555 1.60029 0.267313
        -1.57555 1.85525 -0.4029
        0.781863 2.77705 -0.273858
        0.775046 2.24853 -0.0279477
        -0.866332 0.144199 -0.751741
        -0.745943 1.78691 0.901531
        -0.690099 0.102643 0.233481
        0.173836 1.71543 0.146569
        0.815278 -2.00643 0.759145
        1.29095 -1.29291 -0.236074
        -0.391768 -1.96121 -0.402885
        -0.24315 -1.06377 0.533996
        0.239812 -0.74164 0.867531
        -0.470466 -1.59405 0.433905
        -1.78996 -0.897317 0.908474
        0.188839 -2.64884 0.120271
        1.14031 -1.30706 0.707205
        -0.0701488 -1.19506 -0.558485
        -0.837846 -0.606863 -0.333191
        0.694648 -1.1428 -1.74251
        0.154997 -0.831433 0.896498
        0.171343 -2.72218 -0.388101
        0.0833946 -0.97385 -0.257649
        0.348257 -1.29896 0.229006
        -1.0598 -1.34309 0.321321
        0.855206 -0.670809 0.356089
        0.0881209 0.140321 -0.497915
        1.68657 -1.60584 0.0565427
        -0.200209 -1.97267 -0.151544
        -0.0621417 -1.37066 0.666443
        0.113127 -1.67818 -0.0549168
        -0.113021 -2.40385 -0.708624
        -0.673442 -2.01452 -0.545471
        -0.198926 -0.954814 1.36585
        -0.0698457 -1.849 1.42868
        0.0100435 -1.02327 0.0334479
        -1.01537 -1.44311 -0.727098
        0.158337 -1.01169 0.721495
        0.390468 -1.9177 0.208606
        0.582793 0.0607907 -1.61322
        -0.182431 -1.01257 0.826438
        0.494932 -3.33107 1.01536
        -1.33674 -1.52462 0.545312
        -1.2815 -0.357836 0.53698
        0.23416 -1.74552 -0.955324
        -0.341636 -1.3135 0.91524
        0.331979 -1.07241 -0.205478
        -0.0688266 -2.05316 0.560147
        1.36476 -1.83655 -0.252904
        -0.0653771 -0.883101 -1.44521
        1.29582 -3.09456 0.104766
        -0.097219 -0.910764 -1.40772
        -0.339757 -2.52863 -1.75499
        -1.54206 -0.315928 -0.571475
        0.378709 -0.891788 -0.689236
        0.994733 -2.00809 0.136036
        1.16547 -2.69473 1.26985
        0.626648 -1.78655 -0.176578
        -0.994348 -1.51228 0.108274
        -1.60076 -1.22989 -0.0127672
        -0.266905 -1.21225 -1.06488
        1.05238 -1.4872 -0.933616
        -0.168449 -1.64435 -0.351591
        -0.904724 -2.23452 -0.59386
        -0.440066 -1.13014 -0.0218312
        -0.472065 -1.44952 0.584129
        0.665894 -1.37366 -0.11299
        0.43181 -1.0404 0.70841
        0.262193 -2.07938 -0.234203
        0.255492 -1.5207 -1.32671
        0.552892 -0.699845 -0.230598
        1.59224 -0.184233 0.0412999
        1.09572 -2.00706 -0.0144235
        -1.70271 -0.183334 -1.0578
        -1.51203 -1.67516 -0.614657
        0.606139 -2.78149 1.09007
        -0.500259 -2.18366 1.25534
        0.130055 -2.98831 0.523813
        -0.0519964 -1.02681 0.708866
        0.563315 -0.871749 -0.346035
        -0.773144 -1.73743 0.969542
        -0.22287 -0.881753 0.0699523
        -0.963073 -1.14794 -0.517236
        0.91554 -2.78312 0.581165
        -1.09262 -1.74519 -0.420292
        0.283756 -1.79669 0.734287
        -1.04232 -1.2114 0.847822
        0.465761 -1.01451 -2.36738
        -0.59389 -0.938187 0.309868
        0.892048 -0.49071 0.625083
        -0.0676058 -1.04632 0.909939
        0.696373 -1.5536 -0.701596
        -0.789266 -1.72117 -0.783339
        -0.103964 -1.93339 -1.36548
        -1.20524 -0.786557 1.57898
        0.686395 -1.68818 0.511486
        -0.237097 -1.49622 0.354956
        0.684659 -1.76332 -0.160871
        -0.0344436 -0.990017 -0.298093
        0.304039 -1.35548 0.110398
        1.49258 -1.24347 0.0154187
        0.915578 -0.984214 -0.557366