<?xml version="1.0" encoding="UTF-8" standalone="no" ?>
<VTKFile byte_order="LittleEndian" type="UnstructuredGrid" version="0.1">
  <UnstructuredGrid>
    <Piece NumberOfCells="0" NumberOfPoints="1764">
      <PointData>
        <DataArray Name="velocities" NumberOfComponents="3" format="ascii" type="Float32">
        -0.364051 -0.160005 0.146332
        0.0144238 -2.04022 0.711012
        0.00539387 -1.20677 -1.60605
        0.633317 -0.09506 0.59181
        -0.853793 -1.40787 0.139587
        0.0187674 -2.88171 -0.705938
        0.767881 -1.88225 0.720348
        0.168698 -2.28035 0.132816
        -0.522398 -0.33891 -1.25764
        0.59773 -1.1385 -0.439632
        -0.0527804 -2.81201 0.210872
        -0.693912 -2.11373 -0.668036
        -0.739539 -1.87833 0.594622
        -0.324423 -0.902502 0.646032
        -0.938471 -0.795291 -1.02533
        -0.46748 -0.565922 1.72113
        0.200926 -2.00043 -0.0352478
        0.562389 -0.95788 0.195546
        -1.01982 -1.37941 -0.479797
        0.340689 -1.39015 -0.190951
        -0.490643 -1.59585 0.423592
        1.31259 -0.770723 -0.433021
        -0.838964 -0.124437 -0.876113
        0.871882 -0.495066 -0.79547
        0.226036 -1.45165 -0.681742
        0.13898 -0.912129 0.601249
        -0.81492 -2.21396 1.06937
        1.40492 -1.89466 1.47509
        -1.05947 -2.1903 0.43592
        0.252291 -1.20038 -0.305933
        -0.0882718 -0.608795 0.656988
        0.0452061 -0.694879 1.56154
        0.69551 -0.909684 -0.860086
        1.16675 -0.974025 -0.991327
        1.1232 0.0625842 -0.0634522
        0.111383 -1.79868 -1.15973
        -0.98115 -1.54877 0.487164
        -1.14716 -1.14347 1.36417
        -1.13939 -1.28505 0.29682
        -0.3584 -0.860862 -0.28322
        0.809327 -1.00772 -0.0768044
        1.08831 -0.620998 1.24533
        1.49715 -0.506424 -0.0561882
        -0.834228 -1.5083 0.163217
        -0.0501427 -1.02876 -1.14076
        0.0423861 -0.486996 0.951154
        -0.318975 -2.05523 1.8363
        0.20969 -2.31212 0.0220231
        -1.38486 -0.342348 -0.197857
        -0.334261 -0.342881 1.73167
        -0.513391 -1.79668 -0.827535
        0.381536 -1.39963 -0.730457
        -0.929771 -0.938026 -0.00913872
        0.10169 -1.02002 0.380917
        0.422039 -1.24861 0.212688
        -0.396217 -0.959637 0.840942
        -0.128125 -1.38574 0.11383
        1.03376 -0.863184 -1.02953
        0.636265 -1.90647 0.292067
        0.0341063 -0.974398 0.146971
        0.319306 -1.52969 1.62644
        -0.24878 -0.236437 -0.15219
        0.0932515 -2.21894 -0.274781
        1.23562 -1.50415 1.24002
        1.23504 -1.44375 1.22583
        -0.91139 -1.91194 0.344238
        -0.400034 -1.81242 0.106848
        1.42896 -0.774159 -0.218889
        0.336868 0.0997433 -0.0554271
        -0.370656 -2.36012 1.57537
        0.280439 -1.25727 -0.0506859
        -1.00898 -0.650702 1.00639
        -1.27728 -0.578318 0.784943
        1.65878 -1.25061 0.232607
        -0.412665 -2.38996 -0.191458
        -0.12658 -1.61945 0.199729
        0.346209 -1.27311 -0.180067
        1.74467 -1.25862 -0.216396
        0.560023 -1.59949 1.0313
        0.588819 -1.37031 0.0484419
        -0.51847 -0.404989 0.781894
        0.97635 -1.2137 0.50213
        -1.0818 -1.61282 -0.809609
        -0.328835 -0.798703 1.29543
        -0.713758 -0.350247 0.704515
        0.26197 -1.78225 0.402002
        -0.844084 -1.35304 -0.2894
        0.888253 -0.236417 -0.00565263
        0.718428 -1.5853 1.17988
        -0.949591 0.190247 -1.2325
        -0.744312 -0.5676 0.306174
        -0.830932 -2.55305 -0.33948
        -0.249988 -0.766149 0.614507
        1.21899 -2.22826 -0.0311622
        -0.0114674 -1.16037 0.412177
        -0.175959 -1.37062 -0.751109
        -0.256827 -1.16662 0.198485
        0.914941 -1.49 1.01674
        0.839445 -1.44052 -0.589793
        -0.136103 -1.95634 -0.399043
        0.207502 -1.44344 -0.237374
        0.0148392 -0.535133 -0.201035
        -0.562962 -2.07238 -1.12888
        -0.494312 -1.33714 0.180152
        0.181142 -0.783553 -0.344833
        -1.29752 -0.757261 -0.894291
        0.337963 -1.68713 1.31843
        0.157476 -0.758175 -1.10829
        -1.05681 -1.21328 -1.25911
        0.437554 -1.28182 -0.630473
        0.768267 -1.7308 -1.00686
        1.34677 -0.424833 -0.625201
        1.18968 -0.984524 0.728381
        0.874477 -1.36102 1.28746
        -0.810158 -1.68045 -0.198913
        -0.624893 -0.90036 -0.611365
        0.562925 -0.740058 -0.15967
        -0.000556071 -2.86471 0.229413
        -1.09618 -2.38092 0.738249
        0.0812419 -0.266608 0.159816
        0.344295 -1.49537 -0.863589
        0.881059 -1.50143 -0.694283
        -0.359319 -1.44599 -0.226444
        -0.28753 -1.4008 0.655064
        0.146366 -2.23243 0.283261
        -0.284865 0.18456 0.455726
        0.27303 -1.6862 -0.274324
        1.13951 -1.53067 0.501904
        0.132727 -1.11337 0.458738
        -0.685223 -3.01083 -1.76805
        0.83111 0.262051 -0.000639094
        -0.0453871 -0.906534 -0.299211
        -0.545883 -0.473225 0.0946435
        0.0817336 -1.52279 1.10447
        0.557491 -1.37467 0.898069
        0.030135 -2.01602 -0.117411
        -0.202338 -0.353856 -0.661531
        0.234735 -0.975634 0.178052
        -1.12979 -2.78391 -0.0443722
        -0.125456 -0.537818 -0.529585
        0.276155 -2.27791 0.0858636
        0.109725 -1.53701 1.92042
        -0.821983 -0.92114 0.831808
        0.716697 -0.778784 -0.878672
        1.11628 0.495389 0.74838
        0.472097 -1.66416 -0.0782235
        0.799341 -0.559593 0.15448
        -0.877411 0.108199 0.163316
        0.133432 -1.49481 -0.402257
        1.71508 -1.40751 -0.304931
        0.14445 0.684531 1.2544
        -1.2485 -1.95759 -0.425296
        0.877437 -0.465279 -0.0721842
        -0.732204 0.813185 -0.471261
        0.394192 -0.996049 -0.863413
        -0.93742 -1.23329 -0.0704184
        0.648109 -0.397854 -1.36279
        -1.22232 -0.578431 0.840129
        0.0869666 -1.51572 0.115554
        -0.0901549 -1.64095 -0.199186
        -0.0333082 -0.777317 1.09005
        -1.48809 -0.256516 -0.0405958
        -0.100619 -0.487807 0.0771981
        0.238353 -2.97554 -0.171345
        0.298053 -0.338037 1.09505
        -0.304104 -1.63426 0.189252
        0.547842 -0.144022 0.175022
        0.427899 -1.14314 0.1308
        0.571457 0.250784 0.688228
        -0.0303338 -0.72826 0.605334
        -0.0109081 -0.561198 -0.504621
        -0.0703903 -1.79995 -0.731304
        -0.988315 -0.809912 0.317193
        -0.0627389 -1.16774 -0.484378
        -0.432115 -0.572492 -0.14618
        -2.06089 -2.21491 0.970963
        0.0292469 -2.71174 -0.348473
        -0.37575 -1.37682 -1.66914
        -0.6436 -0.218868 -1.05329
        -0.178254 -1.15387 1.25229
        -0.775935 -1.68157 0.367773
        0.912675 -1.02635 0.0375495
        -2.43385 -0.360958 -1.3974
        0.784757 -0.321771 -0.100401
        -0.557421 0.470155 0.545915
        -0.69759 0.368234 0.150671
        -0.144799 0.714438 0.698931
        0.0613195 1.24422 -0.0847646
        -0.120215 -0.44223 -0.209565
        0.548995 1.96222 0.370677
        -1.20898 1.20404 0.355819
        0.359041 1.53998 -0.051933
        -0.229227 1.43978 0.0980438
        1.76324 0.822192 1.25917
        -1.61145 0.695629 0.808242
        -1.14942 -0.917736 0.231654
        0.313989 0.373956 0.281882
        0.662502 0.378064 -0.959656
        1.7739 1.87665 1.16452
        -0.189467 1.26587 0.879927
        -0.135615 -0.121351 -0.0368171
        1.16074 0.539966 0.524407
        0.338039 1.11202 0.217365
        -0.511642 0.908272 0.0113217
        0.966756 1.58112 -0.55327
        -0.0460928 -0.168042 0.848304
        -0.841269 1.96976 0.193254
        0.571217 1.08729 1.34685
        1.50971 0.509293 -0.21129
        1.64772 0.292091 0.10929
        -0.708426 1.17938 0.175507
        -0.591006 2.45067 0.995557
        -0.732039 0.960777 -0.955973
        -0.805055 1.22251 0.382204
        0.314514 2.72529 -0.258442
        -0.150361 0.733967 -0.857831
        -0.443918 1.70021 0.0522871
        -0.556154 2.06583 0.609589
        -1.07242 2.10946 1.44755
        0.0251499 -0.326795 0.0970869
        -0.333364 1.69607 0.103663
        -0.0681078 0.241892 0.548643
        -0.594514 1.37115 -0.840044
        -0.0495186 1.29308 1.81896
        -0.748652 2.2603 -0.215944
        0.109894 1.66958 -0.847744
        1.21075 2.51684 1.30558
        1.06096 1.00917 1.18619
        1.39657 2.08879 0.494068
        0.69468 1.21614 0.337534
        -0.0831526 0.784507 -2.08577
        -0.518886 1.71991 0.861749
        0.175423 2.1365 2.42034
        -0.0434126 2.26095 -0.5326
        -1.0002 1.3771 -0.603606
        0.0312533 1.4793 -0.56197
        -0.123244 -0.186409 -0.0667547
        -1.13301 0.997206 0.519606
        -0.144833 -0.189928 0.0486312
        0.166192 2.50975 -0.202542
        -0.0340563 1.02161 -0.33562
        0.339306 1.8673 -1.16632
        -0.0524066 2.10111 1.22037
        -0.851158 -0.129377 0.998394
        0.929418 1.10276 -0.053477
        -1.13062 0.89806 -1.98028
        0.282915 -0.360481 -0.3209
        0.158273 1.82536 0.0672236
        0.325505 2.2886 -1.161
        0.584876 0.744115 -0.159372
        0.520974 1.11288 0.23208
        -0.524745 1.18732 -1.16384
        0.662261 0.141406 0.0624967
        -0.988502 1.86133 1.86987
        0.360027 1.07219 -1.24633
        0.25741 2.19965 -0.0719736
        1.10284 1.3433 -0.83742
        1.21224 0.494545 0.649443
        -0.892881 2.48893 -0.244137
        0.439527 1.88411 -0.344429
        0.0355115 1.24543 1.09536
        0.85386 1.02594 -0.554723
        1.02212 0.958307 0.125952
        0.805868 0.782095 -0.222518
        -0.15476 0.957465 -0.127397
        0.662129 2.94901 0.231227
        0.275535 1.87457 0.0970394
        -0.113331 2.03305 1.36203
        -0.618602 0.165374 0.96732
        -0.581071 2.16162 -0.101129
        1.1677 1.60222 0.335631
        -0.00317912 1.99534 0.318891
        0.998938 0.547612 1.46484
        -0.0907042 0.157829 0.791156
        -1.6169 0.797973 -0.562245
        0.656977 0.18167 0.413667
        -0.125585 0.812397 -0.552896
        -0.205251 1.74282 -0.498388
        -0.0706519 1.81959 -1.30582
        0.18458 1.37668 -0.0399295
        0.00222438 0.888605 0.143266
        -0.642082 1.45239 -0.0196319
        1.14873 1.16825 -0.109799
        1.42929 0.659476 -0.0308769
        0.00385216 1.11645 -0.988769
        0.0726757 2.05791 0.576231
        0.955015 0.395867 -0.320769
        -0.336313 1.87788 0.752791
        0.107257 1.02745 -0.351935
        -1.35022 1.94847 -0.197523
        0.781241 0.762294 1.0833
        0.374939 0.434877 -0.521063
        1.00109 1.94432 0.207384
        0.80569 2.46751 0.728216
        -0.712779 1.84257 0.110096
        -0.419792 1.17269 -0.971052
        -1.30202 1.35649 0.021569
        0.124373 1.47401 -1.06016
        -0.566274 2.41316 -0.171468
        0.148137 2.08024 -0.0123629
        -0.118965 1.80662 1.69571
        -0.535063 2.19393 1.00542
        0.468327 1.56368 0.204271
        -0.757286 1.38093 0.708629
        0.69359 1.36745 -0.801461
        -0.837353 1.8851 -0.342613
        0.150802 1.89669 -1.04883
        0.0261023 1.03825 0.170391
        -0.80058 1.273 0.256252
        0.858784 0.847257 -0.435269
        0.036312 0.17107 -1.04855
        -1.48059 1.0172 -0.0651922
        0.18603 0.679524 0.515583
        0.299957 1.43101 -0.588394
        -0.31638 2.38 0.205202
        0.041705 1.04749 -0.586117
        -0.187887 1.7196 -0.43728
        -1.03783 1.56099 0.111027
        0.23405 1.79749 -0.321294
        -1.45171 0.796383 -0.869669
        -0.260018 1.11579 1.67734
        -1.60714 2.37556 0.932983
        -1.21785 1.55599 -0.756074
        -0.394265 0.980062 0.461851
        -0.258219 1.62667 -1.54477
        0.730933 0.959039 -1.05564
        -0.392939 0.910084 0.654724
        -0.505479 2.79164 0.40384
        0.523926 1.39204 -0.831157
        -1.38757 0.421143 0.504922
        1.08287 1.42498 1.00387
        0.0272816 1.2502 0.815458
        -0.449493 1.68881 0.350369
        -0.104788 1.15542 0.393917
        0.0263667 1.01241 0.383673
        -0.283566 0.215641 -0.0977019
        -0.483108 1.00005 0.462847
        0.54719 2.29231 0.456492
        0.54611 2.27252 -1.65007
        0.0639771 0.843361 -0.185244
        -0.195313 2.07552 -1.31016
        -0.102952 0.47639 -0.511424
        -0.0448821 1.39847 0.622188
        -0.7282 1.77253 -0.706592
        0.234577 1.38158 -0.276524
        -0.360819 1.43708 -0.518587
        0.0110382 1.51568 -0.256686
        1.00275 1.59343 -0.888291
        -0.5302 0.711616 0.596266
        -0.878216 0.00912354 0.794443
        -0.325679 0.879528 -1.2563
        0.330253 1.15002 0.413732
        0.120165 0.204582 -1.28605
        -0.432041 1.50672 0.216811
        -0.0901251 1.05045 -0.153966
        0.25757 0.62946 0.547692
        0.265428 1.13453 0.264812
        0.67486 1.63951 -0.773284
        0.556539 2.78644 -0.224919
        0.677404 1.13981 1.04702
        0.151496 0.269541 0.579521
        -0.228379 2.07281 -0.191003
        -0.743717 0.456207 0.766405
        0.786128 1.98017 0.0932358
        -0.39614 2.80302 0.36928
        -0.00854349 0.850991 0.222343
        0.522524 1.92942 1.11685
        -0.280379 3.76448 0.737949
        0.248093 0.81559 -0.407125
        -1.2768 -0.232659 0.570511
        -1.39393 1.25722 -0.414787
        -0.839979 1.63987 -1.25717
        1.0743 1.21236 0.188881
        0.240406 1.5881 -0.913004
        0.702744 1.59891 -0.290572
        0.945642 0.836391 0.826853
        -0.211666 0.355109 -0.477026
        0.490775 -0.834777 -0.41499
        0.599569 -0.897308 0.796565
        -0.120432 -0.956961 -0.324953
        -0.104469 -1.08578 -0.138181
        -0.700465 -2.33851 0.765485
        0.69863 -2.60437 1.54718
        -0.299246 -0.848395 1.3071
        -1.24356 -1.29364 0.133849
        -1.11259 -2.13381 0.443507
        0.117081 -1.08791 0.752678
        -0.296147 -1.79339 -0.108893
        0.534395 -1.8615 -1.63355
        0.443685 -1.26249 0.701887
        -0.0153502 -0.787762 -1.47225
        0.200688 -1.09324 -1.16617
        -0.14807 -1.38512 0.260242
        1.04603 -0.673951 -0.493063
        0.0504527 -0.55005 0.103037
        -0.137779 -2.95941 -0.661887
        0.224133 -2.04033 1.10634
        -0.34787 -2.68925 0.870548
        0.218532 -0.975934 1.29996
        -2.00912 -0.786502 -0.897568
        -0.585226 -1.41519 -0.49808
        -0.954706 -1.27978 0.812566
        0.0675567 -0.7532 -0.54762
        -1.16805 -1.02033 -1.48854
        0.217419 -1.1381 0.523674
        -0.332416 -1.18939 -0.745417
        0.0886543 -2.79821 -0.425313
        -0.556174 -0.740418 0.123384
        -0.255147 -1.36519 0.0231852
        -0.349484 -1.05826 -0.0579526
        0.676207 -2.12566 0.678165
        -0.285036 -0.707416 0.896595
        -0.351438 -1.03478 0.274548
        -0.452439 -1.73615 -1.28033
        0.723188 -1.09867 0.547258
        -0.218149 -1.37135 -0.510951
        -0.0401861 -2.21545 -0.594829
        -0.0854257 -0.960354 -0.0661747
        -0.691295 -1.8699 0.283887
        -0.105585 -1.98327 0.0511666
        -0.82896 -1.79187 -0.0972664
        0.428397 -1.84811 0.0969839
        0.36608 -0.518184 0.194599
        0.469286 -1.15037 0.0324136
        -1.01796 -2.11414 -0.160184
        0.470611 -2.03623 -1.25551
        -0.104666 -1.17445 0.14378
        -1.05947 -0.327092 0.168908
        -0.0125168 -2.08382 0.118506
        0.760568 -1.15123 -0.877564
        -0.418715 -1.54029 0.265417
        0.415027 -1.03037 -2.01395
        1.24332 -1.82424 -0.497477
        1.97374 -0.821252 -0.457967
        1.41165 -1.34709 -0.222591
        1.19695 -1.07289 -0.258939
        -0.0806914 -0.493499 -0.265814
        1.13202 -0.422128 1.0449
        -0.0760845 -1.23574 0.723011
        0.172261 -1.93738 -0.582379
        0.447699 -2.08545 1.78591
        0.166397 -1.17336 0.397027
        -0.226912 -0.857361 -0.744924
        1.91608 -1.30456 -0.0822505
        0.0715974 -0.385744 -0.271613
        0.178299 -1.70126 -1.23448
        0.0510286 -1.9208 -0.147608
        -0.429116 -1.4269 0.503274
        0.59162 -0.421211 1.87593
        1.36062 -0.981182 -0.633646
        0.219134 -1.77059 0.533485
        1.60211 -1.7733 -1.31245
        -0.471159 -0.954178 0.745832
        -1.13144 -0.509104 -1.00199
        0.271548 -1.48919 1.08457
        0.438771 -1.81814 -0.127357
        -0.94197 -2.0335 -0.130893
        -0.960249 -1.64936 -0.500671
        0.247706 -1.85271 0.152903
        0.27009 -0.822763 0.109591
        -0.741559 -0.603508 0.334015
        1.2585 -1.02881 -0.536063
        0.117079 -1.20162 0.366675
        -0.231663 -2.13067 0.119458
        0.631824 -0.631336 -1.11528
        -0.0470181 -1.15184 1.05138
        -0.0143897 -0.153762 0.182384
        -0.188567 -2.79487 0.22046
        -1.11444 -1.6701 -0.0457294
        1.17723 -0.115424 0.0078409
        -0.701707 -1.39658 0.290175
        0.107404 -2.19728 -0.800546
        -0.126728 -1.2693 -0.317991
        0.576697 -0.696216 -0.325209
        -0.000639468 -1.0717 -1.47744
        0.335537 -1.01303 -0.618033
        0.923674 -0.896222 0.0216154
        0.170989 -1.85132 -0.36807
        0.803797 -0.836757 -0.370844
        -0.225932 -1.91855 -0.66918
        0.123565 -0.975161 0.183757
        0.182154 -0.828256 -0.134641
        -0.34318 -1.15429 -0.595584
        1.05806 -1.34324 0.04434
        -0.182883 -0.889111 1.4833
        0.323596 -1.3888 0.0771126
        0.184559 0.250597 0.95014
        1.18202 -1.89761 0.805089
        0.303138 -1.3571 1.15138
        1.64324 -0.24748 -1.00481
        -0.462986 -0.204762 -0.513729
        -0.160798 -1.60576 -0.103244
        0.616575 1.11475 0.301184
        -0.330657 -1.6347 0.879069
        1.90919 -1.15558 -0.452192
        -0.0904183 -0.269058 0.539965
        -1.22697 -1.2153 -0.43213
        -0.428247 -1.64652 -0.169031
        -0.603467 -0.300743 -1.62417
        0.642849 0.0366432 -0.156108
        0.299765 -2.16338 -1.3593
        -0.447102 -1.2736 -0.619265
        0.67995 -1.82194 0.0807408
        0.287545 -1.88923 1.19468
        -0.0688268 -3.36034 -0.745231
        0.320826 -1.4783 1.03692
        0.593369 -0.626865 0.873808
        0.710371 -1.91006 -0.671383
        0.0787643 -0.956439 -1.90625
        0.229378 -2.15964 -0.388635
        -1.21249 -1.07175 -1.44643
        0.963306 -3.88942 -0.0644154
        1.08643 -1.43929 -0.736858
        -0.111776 -1.20306 -0.350339
        -0.435216 -1.14009 0.0430388
        -1.09687 -1.64501 -0.0837744
        0.841907 -2.04853 -0.0314323
        -0.433735 0.160526 -1.89499
        1.17326 -1.56793 0.165906
        -0.331059 -1.24874 -0.534455
        -0.0570964 -1.72975 0.22051
        0.238271 -0.319806 -0.118157
        0.574133 -1.92261 -0.454336
        -0.146063 -2.3433 0.41034
        0.0624441 -0.787832 0.376812
        -0.203089 -1.30283 -0.397036
        0.280121 -0.908469 0.67403
        2.15292 -1.28742 -1.51796
        -0.348953 -1.02098 -0.712242
        0.303786 -0.0686041 0.445662
        -0.344718 -0.609484 -0.673739
        1.54339 0.0226142 -0.424511
        0.175118 -0.911891 -0.692988
        0.464142 -1.33366 0.297989
        -0.437673 -1.06732 -0.799878
        -1.26312 -0.442684 -0.187525
        -0.379489 -1.2183 -0.697224
        -0.479049 -1.17755 0.518942
        -0.711646 -0.153357 1.27309
        -1.053 -2.18729 0.570454
        -1.28334 -1.04226 -0.676031
        -1.83445 -0.881427 0.688993
        -0.0985854 -0.677544 -0.582354
        -0.272992 -1.40278 -0.380283
        -0.917252 -1.21341 0.116009
        -0.367166 -1.16397 0.251733
        -0.0288678 -0.658171 -1.22255
        -0.190548 -1.42727 1.6733
        -0.74133 -1.55238 -0.53217
        -0.263845 -0.997869 -0.444466
        -1.15485 -1.43483 0.62194
        -0.0761372 -1.23225 -1.61574
        -0.83751 -0.475149 -0.466516
        -0.779351 -0.366142 -0.5191
        0.342622 0.0198838 0.23321
        -2.31701 -0.204485 -0.116875
        0.3963 0.564327 0.929798
        0.279335 -1.30846 0.273879
        0.933815 -0.69798 -0.527654
        0.504418 -1.86462 0.757904
        -0.331257 -1.08298 0.843201
        1.87531 0.274436 -0.574851
        -0.108122 -1.4675 0.775958
        0.454916 -0.370146 1.00316
        -0.637822 0.645644 0.0744732
        -0.935776 0.141912 0.776721
        1.78869 0.502812 0.0775646
        -1.23757 0.569456 0.752532
        0.627709 -0.980205 0.286269
        -0.307631 1.02171 0.276514
        1.30957 -0.0534161 -0.293816
        -0.106729 0.781427 -0.709725
        -0.0658441 0.451463 0.748106
        1.38315 0.847626 -0.281745
        -0.574466 0.586335 0.285425
        0.143401 -0.57998 1.5875
        0.200452 1.83867 -0.0228075
        -0.942582 0.214308 0.13866
        -0.318092 1.09773 -0.889733
        1.16483 0.715867 -0.510924
        -0.654108 0.79126 -1.12301
        1.27923 0.751865 0.643104
        -0.666403 0.671392 -1.76787
        0.0062565 -0.119637 0.405477
        -0.298414 1.3439 0.320447
        -1.62206 0.430689 -1.41387
        1.46243 0.895552 -1.12341
        1.20935 -1.20177 -0.0895287
        -0.180118 0.469357 1.24891
        -0.559975 1.77525 0.0177555
        1.07813 2.03403 0.258261
        0.109734 0.516957 0.661348
        -0.0591375 1.20787 0.164596
        -1.24414 1.45625 0.333553
        -0.854488 1.09566 -0.381098
        0.17497 1.30109 0.253121
        0.505215 0.231492 -0.322035
        0.41181 1.10926 0.202327
        -1.0255 1.23985 1.77782
        0.358215 0.978207 0.176084
        -0.831372 0.553543 0.0561728
        -0.334063 1.56471 -0.846494
        -0.0820072 1.96463 -1.00239
        -0.236845 1.72382 0.459088
        -0.337374 0.986247 0.394112
        -2.93658 0.518744 0.480535
        -1.40034 2.93578 -1.0467
        -0.973614 0.200048 -1.07873
        1.11407 1.74059 0.694076
        0.567286 0.572106 -0.104459
        1.39362 0.090828 -1.08512
        0.067313 2.21648 0.124024
        0.0692378 0.862232 0.183728
        0.0657313 0.596811 0.631329
        -0.551557 0.344485 -0.607715
        -0.41681 1.75466 0.225102
        0.469097 2.49357 0.440422
        -0.192951 0.402289 0.124334
        1.35096 1.35786 0.586274
        0.615688 1.40428 0.462168
        -0.214812 1.88716 0.474453
        0.537764 2.44262 1.0452
        -0.0439346 1.43523 0.328178
        -0.201164 0.492022 0.7779
        0.735953 1.33437 -0.212566
        -0.480614 1.16712 0.415027
        2.2745 1.25833 0.801687
        -0.144426 0.427137 0.504009
        0.187208 0.85808 0.136714
        -0.484733 2.98463 -1.78659
        0.0493788 2.54689 -0.621676
        -2.25255 0.336875 0.0390959
        -0.284108 1.85958 0.212312
        -1.15997 0.248765 0.97348
        0.268678 1.81654 -0.756733
        0.364636 1.58894 0.163707
        0.517543 1.22445 -0.128306
        0.456683 2.21683 0.245482
        0.387728 0.765776 0.258048
        -0.842152 0.702489 -0.987392
        1.43866 0.213216 -1.05252
        -1.10276 0.706669 0.547791
        -0.472929 1.27183 0.257578
        -1.39781 2.65668 0.517433
        -1.02894 3.15824 0.141903
        0.0462803 1.26953 -0.067435
        1.64357 -1.12203 0.137494
        -0.0829003 0.0418615 0.189446
        1.41341 -0.333239 1.72996
        -0.0423993 1.94019 0.0440872
        0.830356 0.741448 -0.347192
        -1.97173 1.81486 0.259843
        -0.0471128 2.12805 -0.0897132
        -0.761319 1.43251 -0.329003
        1.01121 1.64132 0.323556
        -0.564998 0.916636 0.0471697
        0.94915 1.16907 -0.445961
        0.574167 2.8534 -0.572795
        0.981145 0.944835 0.0640186
        0.104663 0.463181 1.66922
        -0.390218 0.47277 0.659802
        -0.892389 0.572988 -0.437885
        -0.648978 2.3408 -0.319826
        0.532896 1.6445 0.172898
        0.427713 0.588854 0.262263
        0.386374 1.09943 -0.033399
        0.507611 1.20842 0.857158
        -0.628873 1.00639 -0.811935
        -1.08159 1.43513 -0.788175
        -0.25706 2.10552 -0.365284
        0.251682 1.4602 0.70548
        0.408348 1.79821 0.392288
        0.755433 1.49436 1.01107
        -0.240165 1.54699 0.935481
        -0.0393993 1.53771 -0.29958
        -0.548375 1.60351 0.684701
        0.00900249 0.4748 0.298461
        -0.932714 1.11338 0.413326
        -0.22361 0.505789 -0.0688111
        -0.170725 1.33277 0.470153
        -0.12099 0.736704 -0.00908944
        -0.045267 1.41287 -0.0279251
        -0.179809 1.00756 0.941295
        0.422918 0.891034 -1.46033
        -0.309049 1.95653 0.525773
        -0.638255 1.58904 0.128791
        1.43117 0.169871 0.844702
        0.126084 0.757375 0.6387
        -0.243279 -0.215885 0.064502
        -1.22552 1.62868 0.262892
        -0.456871 0.620522 -0.289082
        -0.196043 1.92982 0.502594
        0.625795 1.03013 -0.440202
        0.407788 0.585899 0.424221
        0.476742 1.73323 0.522846
        1.23445 1.53379 0.0277615
        0.242277 1.92406 0.95948
        0.251713 1.66064 0.610291
        -1.03182 1.36039 -0.685
        1.09176 1.38526 1.27977
        -0.195381 2.51692 0.491005
        -0.479916 1.32921 0.994198
        -1.29875 2.44235 -1.16014
        -0.525265 2.43335 0.785301
        0.114215 2.21407 -1.23987
        -0.876965 0.407954 -0.462831
        -0.812088 1.6266 -0.595757
        -0.479611 1.81814 0.522231
        -1.11206 1.46206 0.0667409
        -1.13149 1.92855 -1.49681
        1.47698 0.0267947 -0.0107648
        -0.75687 1.95263 -1.08967
        -0.288898 -0.197663 -0.0672755
        0.333925 1.21372 0.534452
        -0.606507 2.88674 0.250983
        -0.795121 1.08484 1.0756
        1.15035 1.37715 0.644462
        -0.760052 1.03292 0.406669
        -0.544935 1.1756 0.224218
        -1.43058 2.54812 0.406228
        1.12347 0.632388 0.153112
        -1.51885 -0.538405 0.235441
        -0.448911 0.0880318 0.48121
        0.613926 1.7983 0.444911
        -0.107981 1.09788 0.100896
        -0.293561 0.481 -0.634328
        0.398157 1.59801 1.57256
        0.143255 1.1325 -0.7886
        0.301784 0.00252586 -0.547068
        -0.764635 1.34343 -0.301595
        -0.143722 1.01228 -0.454991
        -0.722567 1.46504 -0.0831722
        -0.278381 2.43938 -0.410471
        -0.582044 0.290946 -0.154449
        1.06022 2.24345 -1.15655
        -0.57916 1.50486 -1.05557
        -0.850586 2.12062 0.0798271
        -1.0158 -0.350073 0.630419
        -0.493652 1.1634 0.13454
        -0.522669 2.33563 0.0532302
        -0.680294 1.45669 0.177632
        0.301665 2.44818 -1.18015
        0.228202 2.87035 0.189731
        0.347332 -1.94309 0.647714
        0.636412 -2.36012 -0.587569
        -0.333362 -1.21814 -0.246861
        -1.20267 -1.211 1.29859
        -0.285128 -1.43106 -0.426409
        -1.18991 -0.354915 -1.40373
        0.254352 -1.07996 0.596623
        0.0360908 -1.84707 -0.609363
        0.621445 -2.51467 0.394048
        -0.144057 -1.70327 0.699785
        0.22969 -0.377043 1.13338
        -0.604622 -1.21297 0.251019
        -0.704937 -1.70609 -0.255584
        0.719202 -0.973689 0.894737
        1.07662 -0.311292 0.124638
        0.394275 -0.653564 -1.13189
        -0.330741 -1.21459 1.40916
        -0.401411 -1.41041 0.521179
        0.736749 -2.48987 0.979208
        -0.0798837 -0.195317 -0.376164
        -0.370214 -0.633307 1.26553
        0.166428 -1.23941 0.142184
        -0.213822 -1.68058 0.234963
        0.493811 -2.27786 -0.14977
        0.265584 -1.7017 1.1487
        0.249402 -0.579887 -0.475432
        1.08517 -0.605553 0.412606
        -0.10618 -1.65095 0.560659
        0.611298 -1.90261 1.63063
        0.703005 0.120821 -0.373154
        -0.500605 -3.30314 -1.01551
        0.206779 -1.4106 0.00804808
        -0.832063 -1.98775 -0.232076
        -1.17308 -1.63102 0.307305
        -0.010976 -2.38488 1.20767
        0.959901 -1.27813 0.177152
        0.228858 -1.097 0.146266
        0.0341186 -0.715378 -1.49076
        0.615528 -0.25276 -0.356687
        0.908436 -2.20264 -1.66147
        -0.393086 -0.311238 -1.5424
        0.0746863 -0.906942 0.86408
        0.779971 -2.40929 1.34884
        0.788635 -1.67692 -0.969498
        -0.824865 -0.788334 0.59978
        -0.265498 -0.535616 0.289851
        -1.96458 -2.49001 -0.267586
        0.283199 -0.802917 -0.276692
        -0.506702 -2.43252 -0.056373
        0.0964156 -2.26116 0.453804
        -0.182303 0.20606 -0.604532
        -1.00994 -1.171 -0.633726
        0.139783 -2.2254 -0.0618523
        -1.83017 -1.23452 0.69362
        -0.508181 -1.89969 -0.0519543
        -0.464979 -0.762262 -1.00335
        -0.326314 -1.32034 0.0878197
        -0.238327 -1.7901 -0.397103
        1.06525 -0.947381 0.16227
        0.308303 -1.20096 -0.0216314
        -0.0654262 -2.93144 -0.759816
        -0.121863 -2.20775 0.425586
        0.324071 -2.20944 -0.496586
        -0.12355 -1.75565 0.498751
        -0.106567 -0.915629 1.32908
        -1.69677 -1.04127 -0.868935
        -1.11008 -2.07462 1.02441
        -0.307059 -0.677068 0.58448
        0.430235 -1.90742 0.478746
        0.49643 -0.361797 0.716037
        0.0515766 -1.98495 0.523841
        0.179246 -1.64249 0.421645
        0.255215 0.98725 0.222156
        0.328103 -2.37381 0.177302
        0.605632 -2.18152 0.706554
        -0.118933 -0.634609 0.892735
        -1.56421 -1.72831 0.482531
        0.0393477 -1.76146 0.374477
        -1.38686 -0.659627 -0.0885396
        -0.118959 -1.33458 0.658043
        -0.690907 -0.705049 1.02021
        0.974964 -1.1016 0.586149
        -2.63067 -1.50525 0.58544
        -0.360314 -1.40905 -0.625099
        0.661689 -1.26419 -0.13515
        0.750557 -0.712911 0.0731298
        0.836463 -1.18821 0.0389101
        -0.0859198 -2.11992 -1.66201
        -0.190975 -2.0888 -0.0439694
        1.56627 -1.09495 -0.419729
        -1.86362 -0.247372 0.931992
        0.943576 -1.58075 0.463973
        -0.410845 -2.2148 -0.00336977
        0.869725 -1.88308 0.543859
        -1.13656 -1.33132 1.09627