<?xml version="1.0" encoding="UTF-8" standalone="no" ?>
<VTKFile byte_order="LittleEndian" type="UnstructuredGrid" version="0.1">
  <UnstructuredGrid>
    <Piece NumberOfCells="0" NumberOfPoints="1764">
      <PointData>
        <DataArray Name="velocities" NumberOfComponents="3" format="ascii" type="Float32">
        0.980146 -0.889677 0.252563
        -0.672934 -1.4605 -0.419023
        -0.204318 -1.50787 -1.15953
        0.76896 -0.0145734 -0.329945
        0.116198 -1.60704 0.310124
        0.18867 -0.72811 0.606954
        0.828266 -0.834455 -0.231649
        0.574509 -1.90194 -1.1812
        0.35318 -1.23872 0.719208
        -0.404616 -2.48121 0.170826
        0.374577 -1.39404 -0.226391
        0.194906 -2.95179 -0.793079
        0.49728 -1.85729 -0.415021
        -0.861185 -1.53767 1.46558
        1.04937 -2.57517 -1.24833
        0.89527 -0.991469 0.935628
        0.37285 -1.77748 0.0463274
        0.234287 -0.766517 0.0115808
        0.609045 -1.44881 0.550837
        -1.00012 0.600847 0.313228
        -0.466979 -1.41714 0.679276
        -1.29371 -2.08943 -0.808115
        -0.0723853 -1.86489 -0.806597
        0.184264 -1.16403 1.1791
        -0.269809 -1.68534 0.984708
        -0.996364 -0.336562 -0.369728
        0.0740137 -0.916808 0.245
        0.839161 -1.96802 1.07032
        -0.551869 -1.61517 -0.238377
        -0.16356 -2.84614 -0.906072
        0.833332 -0.507408 1.02141
        -0.288754 -1.47391 -0.493467
        0.224206 -0.846342 0.240356
        0.102832 -1.53985 0.775544
        0.993203 -2.39771 -0.780114
        -0.378537 -1.31667 0.765626
        0.555443 -0.996711 1.21728
        -0.368704 -1.81213 -0.418506
        -1.67698 -2.36056 0.326051
        -0.246249 -1.36135 -1.26272
        -0.74212 -1.67299 1.98202
        -0.331213 -1.08053 1.05301
        1.0778 -1.58072 0.598248
        0.387768 -1.27509 -0.233236
        0.442125 -1.05881 -0.943919
        0.0178955 -2.65466 1.315
        -0.108094 -1.01839 -0.257283
        -0.567561 -0.268881 -0.339369
        -0.884551 -1.36919 -0.150861
        -0.322904 -1.91674 -1.71179
        -0.849354 -0.317853 0.177407
        0.325714 -1.0272 0.0774971
        0.117272 -0.34712 1.36592
        0.0378137 -0.804225 1.33794
        1.26348 -0.520906 -0.860848
        0.680008 -0.855764 -0.254243
        -0.146732 -1.09731 -0.083099
        0.516396 -1.31615 -0.497509
        -0.282407 -1.46331 -0.60612
        1.1427 -0.813376 0.57673
        -0.859715 -0.934974 0.534527
        0.12814 -1.16713 -0.556904
        -1.27809 -2.94832 0.601028
        -0.483144 -1.07532 -0.922594
        0.863544 -2.18222 0.109958
        0.637836 -1.63501 0.424649
        0.787446 -2.01288 0.418322
        0.050928 -1.25145 0.27359
        -0.20131 -1.29239 0.323053
        -0.507722 -2.15815 0.0542328
        -1.38805 -0.396784 1.17889
        0.348098 -1.03807 -0.914585
        -0.0690462 -1.35255 -1.09153
        -1.33348 -1.83543 -1.71339
        -0.360417 -1.6185 0.770332
        -0.375561 -1.13968 -0.940674
        -0.00798019 -0.298238 -0.890353
        -0.172951 -1.58882 0.131682
        -0.0476987 -1.22735 -0.791644
        -0.365122 -1.53716 0.631813
        0.891018 0.106144 -0.0411429
        0.513943 -0.913294 -0.00552967
        0.280801 -1.41616 0.158801
        -0.57012 -1.41653 0.238165
        1.02892 -0.767121 0.121295
        -1.08649 -0.910998 -0.708124
        -0.650648 -1.31817 -0.641817
        -0.113727 -1.92847 0.140216
        -0.252692 -1.77193 0.452202
        0.654005 -0.875982 0.827388
        -0.0973339 -1.24079 -1.12422
        0.765629 -1.39254 0.0395818
        -0.11088 -0.0921799 0.796367
        0.411117 -0.317355 0.197625
        0.147166 -1.45187 1.95071
        0.231088 -1.59537 -0.598338
        -0.448547 -0.848607 0.655128
        -0.82173 -0.45112 -0.542866
        1.15429 -0.485881 -1.23675
        0.396527 -2.2334 -0.723634
        0.939578 -0.0768838 0.555224
        0.648227 -0.183675 -0.0120352
        0.967932 -0.26332 -1.00771
        -0.325955 -1.64722 0.137813
        0.530845 -2.14085 0.0394255
        1.07891 0.166034 -0.250523
        -0.395556 -0.597984 0.455164
        -1.25084 -1.7535 -0.46969
        -0.721083 -2.4443 0.0844195
        -0.69556 -2.78813 -0.0817488
        0.0572919 -1.55335 -1.14022
        -0.186208 -2.03281 0.0664753
        -0.0587407 -1.19905 -0.50642
        -0.405059 0.142068 0.0998301
        -0.0487866 -0.663652 0.836196
        -0.396649 -2.48033 0.184525
        0.390156 -0.551813 -1.71793
        0.0350641 -1.2672 1.69449
        0.673261 -1.18346 -1.08429
        -0.941443 -0.936639 0.600796
        -0.816477 -0.970004 1.71054
        0.295267 -1.44179 -0.243086
        -1.1363 -0.909984 0.576602
        0.439361 -1.10574 -0.271188
        0.00201232 -0.237375 -0.34725
        -0.222758 -0.663983 1.29408
        0.427843 -1.87052 0.557755
        -0.464051 -1.09356 -0.499404
        0.0476785 -0.761915 0.180266
        -0.717042 -1.46833 0.0321482
        0.344652 -0.971842 -0.0103911
        0.143363 -0.471304 0.0707373
        0.459448 -2.90631 -1.35914
        0.473329 -1.65864 0.824323
        0.0671985 -1.46692 -0.33418
        -0.908341 -2.03468 0.162884
        -0.154951 -0.729778 1.14605
        -0.577188 -1.49439 0.744544
        1.10665 -1.4506 -0.0537711
        0.652786 0.443221 0.0447388
        0.23797 -2.18655 0.250618
        -0.116901 -0.486999 0.143557
        0.756778 -0.704545 -0.0214533
        -0.823628 -0.986713 -0.546228
        -0.428797 -0.532704 -1.56318
        -1.51998 -1.71547 -1.92333
        0.748269 -1.10449 0.0887217
        -0.515975 0.25462 -0.575994
        -0.975397 -1.11782 -1.03609
        -0.474123 -1.75374 -0.15184
        -1.1788 -0.541033 0.45703
        0.479652 -2.13933 0.696184
        -0.329121 -0.274379 1.13805
        -0.0808129 0.167331 -0.425399
        -1.3425 -1.04419 0.183801
        -0.581693 -1.30494 0.0932773
        -0.834144 -0.698815 0.159118
        0.61756 -0.709626 -0.00142635
        -0.00207934 -0.438629 -0.895804
        -0.554679 -0.777668 0.0355022
        -1.32829 -1.32739 -0.1357
        0.915647 -0.435277 0.330472
        -0.516067 0.58953 -0.95999
        0.617066 -2.26366 -0.450479
        0.11245 -1.36767 -0.186757
        0.425222 -0.880777 1.83639
        -0.331826 -1.11838 0.606319
        -0.236383 -0.670815 0.012441
        -0.611316 -0.870264 1.00404
        1.26924 -1.04718 -0.833635
        -0.190922 -0.629601 0.0244707
        -0.215089 0.0697491 0.500966
        -1.84353 -0.419825 -0.277627
        -0.157613 -1.6836 -0.0186664
        -1.93096 -1.39614 -0.0186939
        -0.224708 0.177741 0.305172
        -1.99155 -0.736619 -0.457856
        0.740762 -0.224413 0.094224
        -0.423934 -0.631782 0.0198407
        0.475775 -0.209838 0.858415
        0.134999 -0.617146 -0.624089
        -0.158066 0.77412 -0.789753
        0.489743 1.18844 -0.0502355
        -0.671001 1.18069 1.20788
        2.06109 1.317 0.0631923
        -0.146079 0.189273 0.69216
        -0.533118 1.53501 0.259134
        0.232204 0.653057 -0.590526
        0.362375 -0.00248984 -0.184397
        0.307884 0.211735 -0.459291
        0.618925 0.231362 0.775985
        0.987141 1.25371 0.482785
        -0.00845726 -0.533193 -1.03364
        -0.0644555 0.477488 -0.645366
        0.376628 0.746913 0.758532
        -0.0759299 0.128652 0.927722
        -0.956298 0.543954 -0.0240941
        -0.550235 0.32318 0.417552
        -1.22128 1.99254 0.234912
        -0.455895 0.852239 -0.573298
        -0.386012 1.74986 -0.251864
        -0.32831 0.541588 -0.107276
        0.248067 0.504905 0.814566
        0.0841255 2.42176 0.753259
        -1.33061 -0.358525 -0.393575
        0.874121 3.03046 -0.350227
        0.259828 2.3523 -0.123709
        0.235845 2.16724 0.702648
        0.959389 1.28039 -0.95021
        0.73228 1.47277 -0.298768
        0.522546 0.590237 0.104915
        -0.230214 1.43355 -0.246289
        -1.0566 0.734946 0.151024
        1.376 1.51687 0.265943
        0.192753 0.750315 0.517141
        -0.287159 3.25583 -1.23826
        0.527412 1.1345 -0.653179
        -0.22901 0.47289 -1.36309
        -0.288194 0.817776 0.000788709
        -2.13707 0.331877 -0.597636
        -0.557352 1.90615 0.399022
        -1.51598 1.17298 -0.498651
        0.171577 2.21286 -0.310507
        0.0205342 0.922684 0.447832
        -0.849678 1.30767 0.0358123
        -0.764433 1.46168 -0.436492
        -0.786576 1.6081 -1.20149
        0.491584 1.12916 0.693788
        -0.491632 0.950631 -0.409488
        -0.233794 1.56417 -1.07554
        0.816188 1.71589 0.968341
        -0.871752 2.06212 -0.0852759
        0.00725124 1.03199 0.769854
        0.328821 0.734361 -1.35039
        0.251109 1.91391 0.350726
        0.60783 2.535 -0.69714
        0.127758 1.401 -1.17376
        0.993929 0.711721 -0.422129
        0.399721 2.1172 -1.1211
        0.84515 2.17549 0.666216
        1.12466 1.36726 0.742489
        -0.501131 1.16671 -0.655958
        0.0245376 1.78189 -0.0674847
        0.241376 1.56313 0.514789
        -0.349288 -0.393451 0.120831
        -0.556484 1.08131 -0.303144
        0.858958 0.752485 0.781149
        -0.619547 1.18931 0.0919212
        1.06932 1.53561 -0.0509577
        0.386681 1.03933 0.884842
        0.0702002 0.868735 1.19103
        -0.059939 2.51595 0.522981
        -1.25886 1.16546 -0.597567
        -0.640482 2.61209 0.0203703
        -0.946207 1.1802 0.0364608
        -0.412057 1.23689 1.22412
        0.00734331 2.07549 -0.89091
        -1.85678 2.14051 0.591201
        0.348934 1.78075 0.717426
        0.672949 0.0709705 1.01742
        -0.330125 2.72907 -0.947224
        -0.772358 1.35351 0.342528
        0.0096959 1.41997 0.356389
        0.0344975 1.51353 1.30072
        0.768149 1.17286 -0.486749
        0.1234 -0.219148 -1.46999
        0.606917 0.797168 0.221417
        -0.129506 0.305538 0.464968
        0.544806 0.639313 0.240018
        0.898333 0.661592 -0.69078
        -0.446922 0.0165057 0.09756
        0.222806 1.38312 -0.341286
        -0.861358 0.815977 -0.809023
        -0.188696 0.514137 0.778216
        -1.81405 0.679484 0.181385
        -0.381094 2.19383 0.55213
        0.103432 1.88691 -0.346169
        0.385318 1.29916 1.26373
        -0.926527 1.44142 -1.71351
        0.132811 1.24376 -0.717356
        0.428989 1.85053 0.455195
        -0.562596 1.31562 0.419259
        -0.147761 1.66574 -0.11445
        0.803113 1.3247 0.503668
        -0.852116 0.98072 0.161629
        0.052683 1.34967 -0.723524
        -0.713352 1.89398 -1.49566
        0.515896 0.265375 -0.789463
        0.274097 1.46744 0.155289
        -0.881093 1.1502 0.0797643
        0.160666 1.59727 -0.447339
        -0.136482 1.65906 0.07494
        0.401799 1.43414 -0.331167
        -0.106128 -0.117341 -0.306128
        -0.379204 1.40267 0.846217
        0.966409 1.66869 0.383941
        -0.547663 1.33822 -0.402033
        -1.28881 1.86117 0.0959628
        -0.226596 1.8747 0.963084
        0.41369 1.00853 0.147252
        0.701666 2.08993 1.71704
        -1.08266 1.39269 -1.10731
        -0.563093 0.0869707 -0.0478884
        0.811729 1.18261 -0.492392
        0.449951 0.434004 -0.368378
        -0.0994453 0.806394 -0.286863
        -0.965463 1.35265 0.0277261
        0.241138 1.30104 -0.46482
        0.338061 0.10766 0.121016
        0.734187 1.00015 0.0251814
        1.66356 1.58421 -1.17032
        -1.43261 0.46867 0.37178
        0.356103 2.38942 -0.730736
        0.72955 0.452549 -0.106023
        0.468254 1.80947 -0.493715
        0.395255 1.45256 0.327734
        -0.623725 -0.113389 -0.590312
        -1.02922 1.67326 0.545514
        0.427275 1.31396 -0.821326
        0.0253838 1.47351 1.07379
        0.415621 0.790085 0.838263
        0.0687207 0.0564885 0.596607
        -0.0457558 1.94435 -0.282749
        0.0350242 2.82615 1.15768
        0.627948 1.8972 0.148652
        0.475087 1.76574 0.251247
        -1.08077 1.33692 -0.194424
        0.231567 2.07419 -0.466189
        -0.813662 0.852839 0.253962
        0.194833 1.24504 0.277731
        -0.279097 1.84667 -0.122152
        -0.848631 1.81212 0.047874
        0.534795 0.692439 0.365078
        -0.878542 1.53409 0.329744
        -0.681777 0.287059 -0.0438032
        -0.743368 0.456377 -0.00228047
        -0.844632 1.33249 0.869002
        0.838676 0.907834 -0.41055
        1.24445 1.16904 -0.355798
        -0.812149 0.592328 1.21115
        -0.58508 1.21158 -0.276257
        0.559486 0.995151 0.340004
        0.843644 1.60935 0.168841
        0.168731 1.80022 -0.511976
        -0.32088 0.851684 0.443846
        -1.74959 1.10424 -0.315556
        -0.0564473 1.4313 -0.0230172
        0.678952 1.25267 0.125859
        -1.23586 1.21552 -1.35371
        1.15187 0.755264 -0.586489
        -0.142483 1.95116 -1.04915
        -1.18153 1.1785 0.733973
        -0.00583792 0.0941861 1.45052
        0.431842 0.992856 0.0816337
        -0.20084 1.47413 0.189876
        1.22089 1.01266 1.35586
        -0.53035 1.23755 0.848842
        -0.716252 1.62214 -0.64939
        -1.44265 2.04082 -1.44833
        -0.697567 1.65442 0.904419
        -0.0492828 1.52121 0.119524
        0.0588953 2.02373 -0.899667
        -0.620963 1.41048 -0.778282
        1.01111 2.5271 -0.0904278
        0.189542 1.14904 0.39818
        0.250124 1.41763 0.380616
        0.234174 2.27574 -0.748206
        -0.541617 1.34822 -0.00832231
        -0.00259182 1.98024 1.24391
        0.495395 -1.50921 0.866539
        -0.0489359 -2.39865 -0.749332
        0.0546985 -0.509232 0.501659
        1.02275 -2.00896 0.092806
        -1.20329 -1.69314 -0.218305
        -0.111299 0.594681 0.38886
        -0.112337 -2.59657 0.678206
        -0.521199 -0.13607 -0.130977
        -0.213295 -1.68828 0.215254
        -1.30822 -1.0339 -0.491459
        0.109046 -2.24148 -0.230125
        -1.32128 -1.44809 -0.366295
        -0.737264 -0.930452 -0.278927
        -1.40408 -0.906732 -0.091304
        -0.791003 -0.585788 -0.469448
        -0.747453 -2.11751 0.862365
        0.106039 -0.684065 -0.101364
        0.0921317 -2.48004 -0.497181
        0.332909 -1.42969 -0.646603
        0.983431 -1.90614 0.428179
        -0.383285 -0.273329 -0.845084
        0.653934 -1.45897 -0.629715
        0.215356 -1.39652 0.194239
        0.492173 -2.07914 -1.55159
        1.01702 -1.55139 -1.51901
        -0.460238 -0.659741 0.867786
        -0.490907 -1.70289 -0.798718
        0.0903033 -2.31384 0.311928
        -0.235636 -0.432057 1.71963
        -0.400264 -0.807471 0.342484
        -0.224244 -0.726146 -0.680252
        0.697354 -1.49248 1.12669
        0.644491 -0.238653 0.243342
        1.35238 -1.37638 -0.44984
        -0.0628149 -1.08187 -0.652546
        0.814912 -1.54108 -0.286027
        -0.123054 -2.4015 0.520941
        -0.162386 -0.550381 -1.55489
        -0.449637 -0.757096 0.201162
        -0.820925 -1.19073 -0.408853
        0.164299 -0.250355 -0.0738512
        0.76017 -0.774532 -0.242989
        -0.619019 -0.762974 -0.0952755
        1.78278 -0.419002 -1.00624
        -0.0999226 -1.05897 1.82239
        -0.528352 -0.655103 1.41997
        0.0727864 -2.03381 -0.794872
        0.571031 -1.73721 1.07664
        -1.10936 -2.07579 1.09152
        -0.820564 -0.299064 0.264564
        -0.131913 -1.48571 -1.24524
        -1.29659 -0.814294 -0.236516
        0.569646 -2.22973 0.142838
        -0.679881 -1.76253 0.933017
        -0.33779 -1.75686 0.620955
        0.23826 -1.48723 -0.504092
        -0.405581 -0.479879 0.232186
        0.666837 -1.09401 0.814195
        0.475526 -2.26083 -1.61281
        -0.876042 -0.465902 1.73915
        0.664425 -0.804905 -1.31633
        -0.0805949 -2.0994 0.454237
        0.441641 -1.05458 -0.193095
        0.944155 -1.11479 0.745155
        1.0039 -1.71327 1.01678
        -0.172895 -1.69821 0.52437
        0.059294 -1.99408 -0.307355
        0.70481 -0.695234 1.02097
        1.18478 -2.66888 0.510456
        0.149852 -1.46255 -1.48112
        -0.883733 -2.14656 -0.0706576
        0.818384 -0.0240492 0.154445
        0.013344 -0.932648 -1.32469
        0.398863 0.311891 -0.277727
        0.489882 -2.04782 0.0641063
        0.41978 -0.31431 0.243694
        -0.157088 -1.33017 0.566989
        -1.69173 -0.638768 -0.00559324
        0.0600602 -1.89361 1.01364
        -0.197345 -1.88234 -0.225669
        -1.5061 -0.75171 -1.52578
        -0.696201 0.184696 -0.747122
        -0.474918 -0.840958 0.596046
        -0.0635436 -1.45677 0.690138
        -0.090512 -0.629497 0.880323
        -0.595253 -1.95723 0.0745558
        -0.859067 -1.30735 -0.878963
        -0.157045 -1.7021 0.289894
        -0.493931 -1.10705 -0.828884
        -0.900962 -1.05834 -1.26892
        -0.201099 -1.65042 -0.735242
        -0.563526 -1.48468 0.291167
        0.535358 -1.72719 0.45332
        -0.494211 -1.96872 0.0541165
        -0.123534 -2.0489 0.266209
        0.110043 -1.8678 1.26063
        -0.153154 -2.42701 -0.243027
        1.3378 -0.141201 -1.2261
        -0.658076 -0.787784 -0.274443
        0.283759 -1.57357 1.30978
        -0.0681608 -1.72333 -0.426331
        -0.599706 0.061438 -0.747338
        0.293048 -1.08932 -0.932582
        0.529127 -2.59527 -0.359102
        -0.359594 -1.69888 -1.13747
        1.30516 -1.87638 -1.92572
        0.862705 -1.75807 0.317526
        0.75726 -1.51336 0.620686
        -0.447929 -2.03363 -1.17828
        -0.709931 -0.968422 0.595254
        -0.23911 -1.09987 -0.461999
        0.61328 -0.386942 0.594845
        -0.863702 -2.32094 1.18401
        0.0248225 -1.94535 -0.198105
        0.866535 -2.49376 -0.359558
        -0.224744 -2.13229 0.815295
        0.948184 -1.98329 -1.16496
        0.315988 -0.810729 -0.117887
        -0.245164 -0.771334 0.253735
        0.506481 -0.841889 -0.792399
        -1.61874 -1.12741 -0.163119
        -1.86587 -1.68424 0.200999
        0.255235 -1.88464 -1.02399
        0.799769 -1.04687 -0.77355
        0.684157 -2.62651 -0.104117
        1.51338 -2.52426 1.2243
        0.480717 -2.43279 -0.270568
        -0.505443 -1.8434 -0.214598
        -0.601331 -1.05479 -0.13216
        -0.236276 -0.721519 -0.335469
        1.69759 0.0224229 -0.595299
        -2.20211 -1.07967 -0.574935
        0.635444 -0.796342 0.224521
        0.111196 -1.94434 0.980636
        0.702353 -1.50363 -0.9587
        -0.226656 -3.31483 0.0283403
        1.1144 -1.58836 -0.608916
        0.71034 -1.55988 0.344715
        -0.58796 -0.767927 -0.255931
        -0.1009 -2.90234 -1.17069
        -0.159539 -0.345131 -0.793135
        -0.999316 -0.613079 -0.0877163
        2.23031 -0.217193 0.550188
        -0.619129 -1.73659 0.23863
        0.224569 -1.68767 0.721736
        -0.154746 -1.99295 0.958191
        -0.879901 -0.416617 -0.447887
        -0.139507 -1.27611 -0.906155
        -0.341571 -1.9986 0.300486
        0.0291635 -1.94949 -0.244698
        1.26085 -1.0366 -0.419699
        1.18324 -0.80855 -0.065295
        0.427679 -0.830865 0.0755325
        -0.338079 -1.20721 0.101987
        1.33833 -2.18526 -0.222683
        1.13549 -1.34893 -0.661374
        0.3437 -1.68892 0.689551
        1.14233 0.110317 -0.785702
        1.42305 0.231509 -0.58356
        -0.180814 -1.43788 -2.06967
        -0.0977205 -1.89118 0.358509
        -0.236655 -0.944727 -0.433433
        -0.697678 -1.2827 -1.33204
        -1.47563 -1.0068 0.726218
        -0.680271 -0.546864 -0.198232
        -0.685678 -0.333952 -0.446611
        0.174349 -1.47137 -0.430697
        -0.34044 -0.89469 -1.50757
        -0.872848 -1.95039 -1.75989
        -2.01979 -0.586503 -0.796433
        -1.12003 -1.38309 0.517088
        1.48416 -0.596762 0.936181
        0.64175 0.430954 1.30504
        -0.548804 -1.72686 1.39898
        -0.0171741 -0.0751729 1.02077
        -1.6923 -0.395089 -0.919764
        0.194615 -1.06322 -1.10941
        -1.42533 0.0896933 -0.532317
        0.430084 -1.03456 -0.482423
        0.351858 -1.77837 0.34422
        1.28624 -1.94551 0.0938166
        -0.450682 -0.435495 0.89859
        0.288844 -3.36254 0.320166
        0.157191 -2.57611 -0.250356
        0.796307 -0.34703 1.53753
        1.38743 -1.56167 0.118264
        0.799398 -0.250953 -0.879605
        -0.359111 -0.98015 -0.197618
        1.27451 -0.491135 0.534071
        0.929772 -0.57517 -0.285476
        -0.904637 -1.07113 -0.157763
        -2.27532 0.700348 -1.22794
        0.103894 -0.359409 -1.16241
        -0.540204 -1.58613 0.417965
        -0.259521 0.348489 0.505225
        -0.834851 -0.539026 0.167211
        -0.933245 -1.22055 0.0980108
        0.309312 0.59945 0.408382
        -0.520456 -3.08177 0.534253
        -0.0727302 0.793795 2.0004
        -1.56092 0.732664 0.0799216
        0.03122 0.972565 0.969472
        0.434354 0.672237 -0.230179
        0.103471 0.0140961 -0.271628
        1.02664 0.521522 0.0798093
        0.65589 -1.78333 0.313201
        0.329834 1.07681 -0.577936
        -0.514575 0.315321 1.15423
        1.28416 1.0581 -0.385411
        0.289296 0.702347 0.686511
        -0.645358 1.85365 0.710797
        0.278575 0.844203 -0.117073
        1.45907 -0.147685 0.217636
        0.122477 -0.610619 0.0871439
        0.244571 1.86028 -0.0791847
        0.358366 0.848438 0.532136
        0.644826 0.983123 -1.0147
        -1.14426 0.795053 0.893893
        1.21451 -0.0100486 0.297873
        -0.0218688 0.652651 0.412885
        -0.735566 0.608559 -0.355942
        -0.224181 0.799947 0.0474632
        -0.130378 -0.110052 0.709111
        -0.155355 -0.649147 0.732632
        0.506794 0.534466 1.43895
        0.353572 -0.202199 0.904109
        -0.166568 1.02546 0.156292
        -0.690885 2.17461 -0.42608
        0.0350241 2.27255 0.588541
        0.321 2.53303 0.603593
        -0.178278 2.2565 0.423147
        -1.29377 2.14925 -0.322616
        0.340228 1.60683 1.10522
        -0.0152465 2.25271 -0.0230231
        0.103021 -0.224943 0.360911
        -1.1572 1.13374 0.250968
        -1.28979 2.523 -2.54543
        0.553488 0.751972 0.288497
        -0.84552 1.25248 -1.00881
        -0.253733 1.22253 -0.571385
        -0.990846 1.16545 -0.24416
        -0.598725 0.575234 0.139856
        0.240851 0.712568 1.15179
        0.518181 1.42488 0.584216
        -1.0391 1.76962 -0.599815
        0.0518052 1.69406 -0.254907
        0.808209 -0.215341 0.351451
        -0.574658 1.21048 0.659223
        -0.343901 1.33874 -0.620093
        -0.742667 0.816633 -0.971503
        -0.527508 0.237859 0.914564
        0.320564 0.0116643 0.477333
        -0.212143 0.244251 -0.62218
        0.320977 1.21946 0.294774
        -1.49241 2.06429 -0.0476392
        -1.46669 1.44368 -0.534385
        -0.638966 1.95212 0.14184
        -0.41027 0.363472 -0.224232
        -0.0297402 1.58456 -0.141559
        -0.0839124 2.21011 1.60246
        0.762585 2.02418 0.00437467
        -0.5903 0.711074 1.04016
        -0.437511 2.24605 0.366753
        -0.198659 1.32931 -0.970086
        0.0978082 1.25395 -0.581588
        0.260363 2.8406 -1.5879
        -0.26806 0.884407 1.30452
        -0.0489036 0.591251 0.625761
        0.790692 0.346873 0.0948766
        -0.763566 0.195774 0.174878
        0.614208 1.51002 -0.4961
        -0.0692922 1.61807 -1.17212
        1.32614 1.736 0.0780132
        1.00114 1.81311 -0.197096
        0.472059 2.21481 -1.09329
        -0.150811 2.05939 -0.929581
        0.0560431 2.18303 1.3599
        0.389386 1.06831 1.45852
        -0.660215 1.97379 -0.537587
        -1.15449 1.235 0.303951
        0.527218 2.1634 -0.549147
        0.0985709 0.990078 0.262284
        -0.497063 1.42889 -0.711177
        -0.937937 2.7996 0.0540205
        -0.147845 0.40092 -0.360799
        -0.25044 2.56092 -0.820692
        -1.00839 1.59322 0.352017
        1.16323 1.55894 -0.188107
        0.499066 1.48693 0.75789
        0.365617 2.05878 0.123002
        0.382161 1.18693 -0.599912
        0.625249 0.907238 0.859748
        -0.190448 1.16048 -0.448154
        -0.203663 1.66003 -0.461065
        -0.339475 1.34782 -0.0272789
        -0.629958 2.09915 -1.03118
        0.405615 1.43335 -0.168718
        0.485617 0.479349 -0.363163
        -0.320445 -0.747029 -0.0532882
        -1.36752 1.93697 -0.150428
        -0.137969 2.18767 1.32295
        0.406683 1.74124 -0.465476
        1.1707 0.435962 0.499666
        -0.314565 0.67771 0.667529
        0.434893 2.18591 -0.15108
        0.174942 1.81751 1.37054
        -0.812831 1.93503 0.252799
        -0.0310992 1.39507 0.760651
        -0.00724827 1.06764 0.305499
        0.576685 2.22744 0.542773
        -0.93108 1.06753 -1.76356
        0.403216 1.79314 0.423221
        -0.469905 1.17688 -1.08719
        0.118158 1.40659 0.687255
        -1.29189 0.913889 0.47547
        1.18653 2.22046 -0.201914
        -0.468861 2.98584 -1.23245
        -0.658591 1.60383 -0.51454
        0.230934 0.838502 -0.334757
        -1.02809 1.80241 -0.0651884
        -0.553331 1.40637 0.953176
        0.256615 0.489162 0.082864
        -0.374214 1.5641 0.150326
        -0.711679 1.17866 0.133562
        0.832476 2.33398 0.0152712
        0.194472 0.50602 -0.770017
        -0.817464 1.56554 -0.00962077
        -0.102484 0.186667 -0.718212
        0.530666 1.80566 -0.174283
        0.201458 1.25319 -0.149176
        0.283778 1.42564 -0.185374
        -0.474577 1.4134 0.205435
        0.427012 1.528 -0.112628
        -0.709898 0.750571 0.967768
        0.647871 1.29959 0.465989
        -1.37516 1.71294 0.0579501
        -0.1859 1.14495 -0.233289
        0.61505 1.8629 0.264401
        0.570203 2.83713 0.444491
        0.240529 1.24663 0.164192
        -0.277419 2.0528 -1.19408
        1.39201 1.16327 -0.384824
        0.221275 1.66101 -0.966017
        -0.128419 1.39124 0.745316
        0.0294751 1.41486 0.578606
        0.0662145 0.796931 0.24947
        -0.0828436 1.89369 -0.824482
        -2.15594 2.33064 -0.871911
        -1.08751 1.92017 0.484006
        0.669713 1.1634 0.5654
        1.0291 0.0172375 1.20949
        -1.4553 1.22743 -0.592546
        -0.359568 1.49082 -0.923069
        0.443119 1.87723 0.541406
        -0.325608 1.57901 -0.0381965
        -0.132533 1.10583 -0.696732
        -1.45276 0.747069 0.339448
        -0.462437 2.48622 -0.0801958
        -0.321454 1.10969 0.68043
        0.682418 1.26399 0.0833168
        -0.0586063 1.85334 0.695892
        -0.372876 3.03134 -0.351903
        0.422062 1.37226 0.993053
        -1.68707 0.594138 0.171608
        0.792833 1.52205 0.93323
        -0.31158 -1.38307 -0.606332
        -0.392157 -2.14759 -0.0885702
        -0.155124 -1.26077 -0.873391
        -0.514118 -0.763203 1.07439
        -0.63363 -1.00968 0.355329
        0.168929 -0.988872 -0.115533
        0.0213067 -0.84398 -1.2568
        -0.336802 -0.656928 0.227202
        -0.0524719 -1.5564 1.04828
        -0.0576254 -0.306096 -0.223937
        0.979267 -2.60032 0.683247
        0.171836 0.817372 0.329584
        -0.332441 -1.06577 -0.591744
        0.561559 -2.35856 -0.300969
        -0.518894 -2.06878 0.706359
        1.14687 -1.16312 -0.719463
        0.238636 -0.78804 0.18455
        0.0610888 -2.74675 1.73046
        -1.2843 -1.43382 -0.312266
        -0.0875911 -0.238416 1.2109
        0.896147 -1.50017 0.000938918
        0.20903 -1.22817 0.623517
        0.230727 -0.665184 0.178241
        0.72713 -1.16831 0.974503
        0.250884 -1.16194 0.68096
        1.15447 -2.03555 0.168157
        0.882825 -0.426893 -0.867892
        -1.09917 -0.94109 0.785825
        0.877373 -0.757265 -1.11236
        0.453061 -1.54817 -0.00212849
        0.229675 -1.15623 -0.377074
        0.302862 -0.388621 -0.997275
        0.391644 -1.07931 0.0984931
        -0.0476133 -1.71768 0.991737
        0.162551 -1.70348 -0.875683
        0.332173 -2.2349 -0.00407944
        1.93507 -1.64611 -0.0669527
        1.3051 -1.74333 0.149681
        0.555486 -1.03422 0.458642
        1.15742 -1.12302 -0.0192279
        0.604704 -1.63279 -0.310355
        0.105757 -1.92976 0.130152
        -0.71741 -1.55339 -0.746754
        0.540385 -2.39282 0.271264
        0.00459804 0.381632 -0.207284
        -0.163957 -0.786369 0.0981762
        -0.154465 -0.677858 0.0116641
        -0.532929 -2.3572 -0.161171
        -0.0305908 -1.15857 -0.581678
        -0.444368 -0.373464 0.0769969
        -1.06518 -0.495245 -0.731383
        0.399973 -0.907273 0.0843781
        -0.0877303 -0.483142 0.683631
        -0.546958 -2.6406 0.16281
        -0.558503 -1.79187 0.0498512
        -1.55671 -0.897523 -0.196613
        1.15208 -0.0491213 -0.828283
        0.774367 -1.55553 -1.25249
        0.363044 -1.72945 -0.699321
        -1.1838 -0.751361 -0.775093
        -0.237925 -0.66532 0.118786
        0.206459 -0.501405 -0.809116
        -0.393144 -1.41873 0.481799
        0.135266 -0.424845 -0.0582772
        0.112313 -1.49585 -0.603272
        1.16499 -0.325922 0.732826
        -1.64285 -2.22753 -0.167003
        -0.0426543 -1.43889 -0.0935399
        0.15992 -0.660726 -0.061845
        -1.15943 -0.924691 0.683148
        -0.31481 -1.73242 -0.678122
        -0.611344 -0.702515 0.410625
        -0.196309 -1.06443 0.130608
        -0.579275 -2.1545 1.2144
        0.440203 -2.7936 1.37653
        -0.537823 -1.14366 -0.195275
        0.489464 -1.37736 -0.902076
        -0.0552467 -1.49886 -0.843527
        -1.02739 -1.97934 -1.10286
        -0.0592448 -1.72663 -0.53819
        -0.865261 -2.17325 0.560195
        0.909133 -1.08992 1.13596
        0.386015 -0.233189 0.550256
        0.49169 -0.892249 0.66441
        0.117102 -1.81268 0.391758
        -0.675452 -2.41823 0.375596
        1.60812 -2.11336 0.366948
        -0.496968 -1.48641 -0.757366
        1.81226 -1.41477 -0.446353
        0.147576 -0.401891 0.361045
        0.768212 -1.14044 -0.684859
        -0.00559962 -2.2121 -0.886174
        -0.0958663 -1.54712 0.23
        -0.534825 -1.52186 0.49777
        0.263425 -1.04196 0.14632
        0.16125 -1.11814 -0.405868
        0.27299 -0.986072 -0.337592
        0.276472 -0.528921 0.0272228
        -1.32654 -1.73634 -0.0778629
        -0.634546 -0.124462 -0.537405
        0.911623 -1.61432 0.517714