<?xml version="1.0" encoding="UTF-8" standalone="no" ?>
<VTKFile byte_order="LittleEndian" type="UnstructuredGrid" version="0.1">
  <UnstructuredGrid>
    <Piece NumberOfCells="0" NumberOfPoints="1764">
      <PointData>
        <DataArray Name="velocities" NumberOfComponents="3" format="ascii" type="Float32">
        -0.0631727 -0.511164 -1.19038
        2.47271 -1.29748 1.15034
        0.167831 -0.713306 1.25021
        0.677215 -1.84965 0.00174391
        -0.14516 -1.87761 -0.656678
        -0.448649 -0.171812 -0.430211
        -0.545156 -0.792129 0.643618
        0.388789 -2.52337 0.935215
        -0.0582304 -1.57772 0.28829
        -0.325619 -1.02854 -0.547784
        -0.645744 -0.480547 -0.120418
        0.557761 -1.64266 -0.565052
        0.769573 -1.32536 0.602377
        -0.885648 -0.674539 -1.0456
        -1.74428 -1.77081 -0.392337
        1.03343 -2.23166 -0.211515
        0.0646076 -1.28008 0.924361
        -0.00523471 -0.384242 -0.18212
        -0.0467403 -1.38888 0.11812
        -0.778209 0.0762272 -0.423953
        0.78069 -1.24566 0.780168
        -0.347438 -0.45636 1.22467
        -0.538287 -1.66454 0.63659
        -0.153909 -0.626166 -0.9217
        1.22611 -0.660652 0.384943
        -0.276507 -0.268271 -1.0496
        0.154898 -2.07159 1.3954
        0.0130266 -2.16452 -0.105238
        0.427486 -1.83143 1.50899
        -0.0903414 -2.31363 0.833146
        0.250913 -0.13887 0.98345
        -0.786768 0.306862 1.53621
        1.60742 -0.760115 1.42429
        0.757461 -1.51522 0.26154
        -0.775052 -0.808108 -0.281558
        -1.0932 -1.84564 -0.464741
        0.948312 -0.882267 0.73991
        0.393743 0.0184662 0.187762
        0.550073 -1.31396 -1.43078
        -1.46516 -1.24729 0.575495
        1.23107 -2.08758 -1.51392
        0.940213 -2.53965 0.00292294
        -1.27828 -1.83829 -0.0729695
        -0.00208585 -1.39194 1.51622
        -0.50953 -0.0153186 -1.77709
        1.11318 -1.31076 0.326797
        1.1745 -1.5129 -0.0688778
        0.00335391 -0.0958414 0.728091
        1.28607 -1.61428 -0.194675
        -0.215176 -1.40042 -0.929077
        -0.00781046 -0.208623 -1.54723
        -0.231112 -0.987787 -0.0769441
        0.457353 -1.37744 -0.285516
        -0.0994994 -0.651089 0.228458
        -0.248153 -0.438242 -0.542473
        0.238085 -0.742807 -0.106537
        0.280781 -1.33482 0.460737
        0.727498 -0.820796 0.223694
        0.13387 -0.934896 0.528486
        0.684179 -0.351505 -0.400834
        -0.174996 -1.79636 -0.61479
        0.530431 -1.41936 -0.456041
        0.581914 -0.991896 0.446156
        0.0952048 -2.31572 -0.116238
        -1.2553 -1.30831 -1.68005
        -0.0255502 -0.824107 -0.596558
        0.499046 -2.03331 -0.440584
        -0.432173 -0.16508 0.409443
        -0.0335859 -1.70091 0.118247
        1.09941 -1.4337 -0.626054
        1.16309 -1.12173 0.24869
        -0.172972 -0.620183 -0.316217
        -0.0571446 -0.976619 -0.182273
        0.866966 -0.548646 -0.242522
        0.281996 -1.167 0.418673
        0.532883 -1.13006 0.0708522
        0.496039 -1.54131 1.09951
        0.220039 -1.31532 -0.875076
        -0.584105 -2.44958 -0.224351
        -1.26443 0.620447 -0.0731285
        0.808948 -0.245206 0.444014
        0.902556 -1.88934 -0.587045
        0.712639 -1.97984 -0.0213953
        -1.0988 -0.816752 -1.41367
        -0.629807 -1.95707 -0.50802
        0.930582 -1.30579 -0.608221
        -0.48798 -2.04725 -1.15131
        0.28421 -0.985132 -0.433338
        0.205107 -1.28128 0.616113
        0.000986484 0.627698 -0.541337
        0.0724892 -0.600067 0.280378
        -0.706112 -1.32983 0.241922
        0.0469567 -0.556291 -0.513527
        -0.233032 -1.21108 -1.35745
        -0.736589 -1.46963 -0.0245626
        1.23978 0.0329858 -0.205757
        -0.672376 -2.16881 -0.342759
        1.59945 -1.90901 0.524789
        0.91536 -1.41191 0.563306
        -1.0913 -2.08777 -0.272651
        0.30567 -1.35341 -0.298518
        1.53964 0.556043 -1.70563
        0.359959 -0.970337 0.679543
        0.302056 -1.54512 1.55015
        0.561377 -1.1783 0.801878
        -0.135807 -2.12669 -0.938784
        -0.95393 -2.66439 0.321969
        0.762753 -1.23924 0.177473
        -0.704062 -1.01802 0.754697
        0.244863 -0.42407 -0.21567
        -1.07631 -1.16866 -0.469034
        -1.02077 -1.2711 0.722977
        -1.01905 -2.11516 -0.724542
        0.642888 -0.591692 -0.87077
        0.0443503 -1.62625 0.382822
        -0.32621 0.100036 -0.214184
        1.53941 -0.993237 0.185707
        -0.696261 -1.3327 0.588666
        1.21715 -2.3195 -0.331349
        -0.630219 -1.29474 0.117841
        -1.92644 -1.12705 2.12006
        -0.0506489 -2.31125 0.924743
        -0.456241 -1.03609 0.834952
        -0.0701366 -1.58943 -0.318922
        -0.176933 -2.42248 -1.25914
        -0.537401 -2.14411 0.794054
        0.75487 -0.729586 0.141545
        -0.404602 -1.20932 0.28893
        0.369678 -1.03739 1.09972
        0.630856 -1.19622 1.29489
        -1.12179 -1.50527 1.18969
        1.13556 -1.59485 -0.517337
        -1.27552 -1.25698 1.51064
        0.0547997 -1.68626 0.058403
        -0.151238 -2.77673 0.433607
        -0.983733 -0.785071 0.482041
        -0.107126 -1.58431 0.276865
        -0.645037 -1.79932 0.842807
        -0.690204 -1.24274 -0.754835
        1.35562 -1.02492 -0.446451
        0.46055 -1.50945 0.0444997
        0.0427695 -0.407723 -0.0744625
        0.691014 -1.58798 -1.12481
        1.45303 -1.30327 0.252146
        -0.340036 -0.756497 1.09214
        -0.90482 -0.724506 0.0637206
        -0.67736 -0.390332 -1.38633
        0.185029 -0.80334 -0.126627
        0.934661 -1.69183 0.0323184
        -1.45234 -0.257434 -0.275261
        -1.04111 -0.780203 0.206897
        -1.02405 -1.80062 1.06269
        -0.327506 -2.41795 0.397662
        0.877577 -1.5057 -1.97377
        -0.797447 -0.0630855 0.741871
        -0.204736 -0.128621 -0.833795
        -0.720204 -1.04917 1.04691
        -0.00789006 -1.01022 -0.837927
        -0.393989 -0.0743205 0.669122
        -0.386 -0.873904 0.239189
        0.227457 -0.3416 -0.252083
        -0.182223 -0.308378 0.596391
        0.663819 -0.885427 -0.170254
        0.793694 -0.716238 0.81254
        0.433849 -0.576415 -1.14875
        0.253017 -0.449686 -0.95238
        -1.25378 -1.04532 -0.627416
        -1.08701 0.010315 -1.17263
        0.722521 -3.31448 -0.864276
        -0.0113628 -0.81043 0.0386586
        -0.262292 -0.461442 0.636243
        -0.913131 -0.623512 0.588569
        -1.67046 -0.0459713 0.187846
        -0.768372 -1.31426 -0.930029
        0.683686 -2.03952 0.0885634
        -0.396071 -0.0117867 0.800324
        -0.843164 -1.09439 1.44708
        -0.304141 -1.50802 0.943162
        -0.493728 -2.38753 -0.311325
        -0.123118 -0.790207 -0.666054
        1.30244 -1.38956 0.731523
        0.247848 -0.902532 0.802949
        1.61435 -0.365702 0.837979
        -1.59169 -1.89597 -0.301607
        1.87559 0.275852 -0.571541
        0.784758 -0.321771 -0.100399
        -0.505494 1.47653 -0.139517
        -0.0533366 1.71054 0.460295
        1.02668 -0.187759 0.942681
        0.712815 1.15776 1.35174
        0.584688 0.281449 -0.440278
        -0.162532 -0.283545 -0.026938
        -0.436493 0.299914 0.769382
        0.588568 1.39587 -0.00482998
        -0.0155693 1.38486 0.276003
        1.02944 -0.378913 1.7127
        -0.723633 1.27125 -0.497693
        0.106629 0.624563 0.53165
        -0.0180539 -0.341927 -0.898715
        0.807934 -0.666085 0.416741
        0.143782 1.46612 -0.424722
        1.25889 1.85402 1.00852
        1.55883 1.24626 0.199953
        -0.310879 1.38913 -0.189694
        -0.639288 2.00956 -1.43674
        -1.15998 2.49539 -0.466388
        -0.979586 1.45377 -0.448114
        0.721995 0.965187 -0.0175664
        0.0700234 1.55712 -1.41636
        -0.130495 1.60196 -0.0707286
        -0.892196 -0.576274 -0.288486
        -0.374362 1.06167 0.479228
        -0.193012 1.49647 0.299511
        -0.165614 2.66269 0.22301
        -0.115163 1.81257 -0.354482
        0.433341 1.17661 0.430004
        -0.655954 1.70862 0.17184
        0.360007 2.26299 -0.45677
        -0.0494235 0.962772 -1.01402
        -0.635224 0.210404 -0.5688
        0.4525 2.34541 -0.0961786
        0.297209 0.71665 -0.813773
        0.104261 1.5407 -1.47554
        0.395013 1.33046 0.0942781
        0.921572 0.459547 -0.298052
        0.936588 0.498312 -0.291635
        -0.716841 2.13454 0.736262
        0.454416 0.596667 0.154365
        -0.179997 1.31629 1.9767
        -2.33966 -0.24327 0.0810449
        1.10634 0.506544 -0.467034
        -0.18181 2.04853 -0.467664
        0.0955338 2.61857 -0.377988
        -1.30923 1.83266 0.269587
        0.192492 1.78786 -0.260707
        -0.249138 1.32935 0.379542
        0.759251 1.385 -0.259793
        1.4296 2.49827 0.0834759
        0.0426159 0.880249 0.0523863
        0.188266 1.48777 -0.192347
        2.0089 0.183759 0.760562
        0.150262 1.68104 -0.32539
        -1.15935 -0.61383 -0.00346937
        0.0887141 0.699962 0.505426
        0.687106 1.03254 -0.0935797
        1.36971 0.908133 1.01809
        -0.96181 1.32748 0.781615
        -0.235755 0.688208 0.502467
        1.03331 -0.325633 -0.325414
        0.0100246 1.84861 0.214595
        -0.124216 1.75709 0.41114
        0.745437 0.818209 1.06854
        0.520989 2.89085 1.38573
        -0.51686 2.405 0.426068
        0.190745 1.54779 0.197047
        -0.837861 1.56535 0.0279105
        1.19053 1.9349 -0.340213
        0.0436257 1.08727 1.58936
        -0.703564 1.51113 -0.0237381
        -0.0922016 1.45761 0.645208
        -0.566583 2.93718 0.538534
        1.07509 1.49412 0.705271
        -0.0750155 2.60667 -0.867231
        0.539607 0.465822 0.139707
        -0.753853 0.831341 -1.14833
        0.597481 1.33434 -0.797895
        -0.611893 1.10798 0.585376
        -0.0501567 3.0739 -0.80006
        -0.0209178 0.574192 -0.13768
        0.325147 0.546811 0.324353
        -1.10577 0.721105 0.68783
        -0.28693 1.65669 0.20274
        0.87038 0.7444 0.470661
        0.272665 1.74578 -0.349659
        0.295172 0.401056 -0.513812
        -0.907808 0.854692 -0.352767
        -0.261878 1.61717 0.561632
        -0.559922 0.705419 -0.0183343
        -0.257213 0.476477 0.22284
        -1.06932 0.445734 0.133256
        -0.0657851 0.395689 -0.982757
        -0.352991 1.15019 -0.978996
        -0.72745 1.34276 -0.110848
        1.67088 1.02031 0.979256
        0.906203 1.02388 -0.0645351
        -1.19348 1.56435 -0.964233
        -0.248174 1.60265 -1.04327
        1.11217 1.4595 -1.02978
        -1.61389 1.94127 0.548293
        0.792821 1.53992 -1.0803
        0.56796 0.746831 0.280187
        0.620816 2.39412 0.541157
        1.09534 1.55922 0.655356
        -0.103808 2.16212 -0.284
        -0.142151 2.02941 0.12896
        0.550677 1.05616 0.913826
        -0.830517 2.39654 0.876067
        -0.0125578 1.74503 0.109295
        0.641041 1.25696 -0.057191
        -0.891985 1.94073 -0.670094
        0.367164 0.89172 -0.301757
        -0.167423 1.57544 0.641976
        -1.0942 2.26282 -1.13989
        0.45916 0.976106 -0.298851
        0.674166 1.15681 -0.161128
        0.605868 1.18306 -0.0750027
        0.873572 2.22154 0.389066
        -1.43827 0.917826 -0.113442
        -0.0855682 0.977658 -1.69865
        0.00835225 1.32902 1.54938
        0.734464 1.17556 0.239007
        -0.198102 1.47441 0.0561096
        -1.5381 2.119 -0.658794
        -0.572362 1.13495 -0.110143
        -0.690675 0.824492 0.552037
        -0.102284 0.886898 -0.606454
        0.0600783 1.79716 0.904586
        0.0815757 1.8844 -0.35131
        -0.211567 0.961296 0.846975
        0.332605 1.20216 0.244558
        0.0711965 0.627363 0.180954
        0.281786 -0.15938 -0.434861
        -1.14296 2.64758 -0.316081
        -0.512144 1.38859 -1.04137
        -0.0730892 0.404408 -0.308546
        0.240628 1.69454 -1.17678
        0.434731 0.999509 -0.000600211
        -0.403461 1.62275 1.0797
        0.312368 2.13161 -1.87424
        0.401242 0.855029 -0.744321
        0.608157 1.48791 0.659261
        -0.721176 1.07411 -0.814204
        -1.06147 2.03704 -0.137566
        -0.85767 1.63785 0.367744
        -0.412013 0.894041 -0.213189
        0.852438 0.114059 0.613553
        -0.116643 0.771293 0.760511
        -0.969417 2.15501 -0.97088
        -0.0431228 0.956496 1.52669
        0.719165 1.42648 1.14975
        -0.51761 2.07465 -0.338491
        -0.00673133 1.41525 0.459234
        -0.295532 1.28229 0.169821
        0.684881 1.57361 -0.302697
        -0.829675 0.916458 0.587261
        -0.494155 1.44467 0.525921
        0.287008 1.11739 -0.850054
        0.224708 1.13286 0.149573
        0.384489 0.766661 0.0792858
        -1.00391 1.44748 0.333643
        -1.16203 1.75045 1.0636
        0.693556 1.32767 0.41107
        0.910136 1.37091 -0.229226
        0.503945 0.224566 -0.721832
        -0.109646 2.37525 -0.429656
        -0.607728 0.665188 -0.476596
        0.194459 1.34855 -0.160935
        -0.571057 1.41989 0.233135
        0.0742798 1.15656 0.0171707
        -0.951336 0.560531 0.241433
        0.698402 1.81524 -0.324135
        0.00772738 0.791717 0.479048
        0.0271591 1.58141 -0.264514
        0.619729 1.93264 -0.0380983
        0.539919 2.55265 -0.741946
        -0.231507 -0.255464 0.957286
        0.339418 -0.985405 -1.50052
        -0.558973 1.50634 -0.111018
        -0.601646 2.42959 -0.939804
        1.19008 -0.250771 0.12901
        -0.609033 2.67483 -0.970229
        0.0905168 -2.02989 -0.352642
        1.50549 -2.47727 0.04666
        -0.0118849 -1.3972 -0.467598
        -0.978624 -1.33417 0.672835
        1.06927 -0.692156 0.408761
        -0.119463 -1.34776 0.199573
        0.183399 -2.32365 -0.081757
        -0.353969 -0.425739 -0.155573
        0.523469 -1.76084 -1.11071
        -1.6183 -1.28334 0.29606
        0.199567 -1.34156 0.189933
        -0.896874 -1.95279 -0.212444
        -1.42437 -1.24099 -0.377311
        0.659595 -2.00356 0.119826
        -1.30731 -1.48108 -0.553755
        -0.32092 -0.830877 -0.124877
        1.07923 -0.279085 0.97498
        -0.500188 -0.958945 0.337913
        0.321644 -2.64891 0.751558
        0.770291 -1.19271 0.98482
        -0.120331 -1.77745 -0.483475
        0.373958 -0.698614 -0.0518751
        -1.10043 -2.37887 -1.38516
        -0.428217 -1.62776 0.671058
        1.54048 -1.90757 0.198983
        -0.884802 -1.6354 -0.663294
        0.869144 -2.534 0.674017
        -0.323245 -0.154404 -0.699773
        -0.850931 -2.02013 0.133152
        0.0394898 -2.42934 -0.561102
        -1.45905 -0.452239 -0.529156
        -0.282697 -1.84929 -0.849136
        -0.530036 -1.64331 -0.451504
        0.538706 -1.08354 0.370876
        0.0487112 -1.50724 -0.586154
        0.374735 -1.89224 1.58825
        1.06409 -0.836084 0.425158
        -0.574589 -0.392223 -0.746795
        -0.159631 -1 0.121735
        -0.363879 -1.18357 -0.107692
        -0.190232 -1.3268 -0.852525
        -0.854281 -1.37054 -0.0688432
        0.189148 -1.13702 0.0228393
        0.00639703 -0.978031 0.0179097
        0.497326 -1.2899 0.162056
        -0.814609 -0.818451 0.597239
        -0.591561 -1.7529 0.840411
        -1.26315 -1.09197 0.352329
        -0.209895 -1.5481 0.360556
        0.421353 -0.264258 0.503756
        0.834 -0.0822424 -0.660381
        0.594676 -1.1621 0.0126687
        -1.76302 -2.12483 0.265949
        0.632535 -0.451716 0.460058
        0.693211 -1.44043 -0.444831
        0.0511033 -2.45656 -0.195198
        0.0428766 -0.56228 -0.116475
        0.74208 -1.43291 -1.13664
        -1.06013 -1.73167 -0.138845
        0.69846 -0.718539 -0.477623
        -0.752091 -1.57074 0.882912
        -0.0126293 -1.53898 -0.213851
        0.13925 -1.57223 0.178608
        1.66331 -0.189722 -1.13155
        -0.168771 -0.893412 1.01877
        -0.853438 -1.30459 -1.61298
        -0.841694 0.20567 0.22328
        1.07851 -2.42199 0.564557
        0.0846231 -1.5168 0.387568
        -0.472934 -0.0946888 -0.00506071
        -0.0920937 -0.629963 1.37231
        -1.65322 -1.79895 -0.30494
        -1.09534 -1.46402 0.826806
        0.586213 -1.13666 0.785848
        -0.150948 -0.874976 -0.833221
        0.917644 -1.1776 -0.714255
        0.77317 -1.91176 1.08359
        1.01135 -1.49827 0.330764
        -0.464248 -1.8729 -0.781737
        -0.349879 -1.3613 -0.749117
        -0.171637 -0.527203 0.668342
        1.19671 -0.387864 0.308524
        -0.0436712 -0.705979 -0.514782
        0.213143 -0.996446 -2.02668
        0.606741 -1.82729 0.0170132
        0.904754 -1.4534 1.02972
        -0.501406 -1.78644 -0.105555
        -0.273086 -1.17922 -0.110831
        -0.0208647 -0.650044 -0.631876
        0.730283 -1.57631 0.36698
        -0.598806 -1.23284 -0.249149
        -0.432377 -1.2312 -0.700686
        -0.801881 -1.43751 0.1985
        -0.638754 -2.53709 0.619868
        0.04265 -0.509015 -0.345796
        -0.254325 -2.19633 0.402712
        -0.953615 -0.781857 -2.19263
        -0.0364458 -1.45409 1.74837
        0.261356 -0.525656 -0.0178154
        -0.353218 -1.2165 0.177157
        -0.153589 -1.64824 0.21344
        0.485843 -0.565806 1.33577
        1.23761 -0.819779 0.620311
        -0.370955 -1.80078 1.23926
        0.161654 -0.40463 0.623209
        0.579154 -2.3825 0.244748
        0.445881 -1.15426 -0.631619
        -0.557037 0.099957 -0.741433
        0.429981 -3.34604 0.621775
        0.101775 -1.3574 0.0336527
        0.176131 -3.10861 0.37218
        -0.246146 0.228525 0.000457267
        -1.23615 -0.904129 0.332226
        -1.30311 -1.50594 -0.125631
        0.489002 -2.02048 -0.182099
        1.15747 -0.309063 0.57934
        0.667995 -0.931767 -1.25598
        0.29943 -0.423879 0.365177
        0.313893 -0.64339 0.00994524
        0.535444 -0.986874 -0.203913
        0.997966 -0.898416 -0.0494169
        0.0216875 -1.42321 0.851235
        -0.336736 -0.312546 -1.41532
        -0.149133 -0.761301 1.17413
        -0.517205 -0.920501 -1.16353
        0.814385 -1.87702 0.866636
        1.22979 -1.33631 -0.420855
        -0.585116 -0.667969 -0.0742105
        -0.380536 -1.36331 -0.518647
        -0.37727 -0.390836 -1.03837
        -0.160549 -2.10396 -0.701548
        -0.191098 -2.66307 1.11141
        -0.0700435 -1.23646 -0.435827
        0.182356 -0.392096 -0.0219564
        -0.122695 -1.94812 0.212183
        0.116829 -2.34187 0.03321
        -0.112878 -0.942161 -0.136699
        0.13638 -1.95184 -2.26696
        -0.295012 -1.85543 -0.584172
        -0.0924322 -0.957824 0.552103
        -0.398965 -0.932456 -0.310771
        0.290214 -0.331412 -0.185929
        1.49106 -1.49012 0.11184
        0.401581 -1.31008 -0.949491
        0.656121 -2.58521 0.248758
        -0.629714 -0.320516 -0.630833
        0.664662 -0.577475 -0.91646
        0.635558 -0.338652 -0.133771
        1.06363 -0.398881 -0.0427646
        -0.762884 -1.14762 0.362933
        0.563388 -2.79503 -0.845409
        -0.203336 -0.489628 -0.341653
        0.714889 -0.640494 0.119445
        0.0111571 -1.24117 -0.56017
        0.91738 -2.28054 0.0283219
        -0.478937 -2.49004 -1.13879
        0.189918 -2.076 0.393546
        1.09545 -0.396971 -0.0980861
        0.313267 -1.21455 1.44752
        0.0514212 -0.865649 -0.354053
        0.518487 -1.71926 -1.57201
        -0.399474 -1.49342 0.156091
        1.01329 -0.868978 -0.648407
        0.646591 -3.01714 -0.386995
        -0.873474 -1.22325 2.10318
        -0.152239 -1.46654 -0.669082
        -1.12118 -1.72004 0.215621
        -0.064794 -1.35883 -0.267445
        -1.25406 -1.19188 0.646242
        -1.87525 -0.874041 0.986873
        0.63401 -2.78054 0.34866
        -1.27184 -1.10059 -0.882123
        -1.0463 -1.62242 0.632389
        0.543675 -0.372686 0.0528716
        1.34741 0.14908 -0.196782
        -1.40277 -0.597347 -0.131314
        -0.525142 -0.268237 0.580999
        -0.79733 -0.883465 0.332223
        0.263515 -0.280123 0.680708
        -0.468947 -1.17078 0.211719
        -1.76899 -1.25165 -1.37903
        -0.0582679 -1.27857 -0.311116
        1.2774 -1.4469 0.55524
        -0.698594 -0.137118 -0.89109
        -1.9871 -1.63246 -0.399901
        -0.178533 -2.18554 -0.643372
        -0.616627 -0.415169 0.936528
        0.745638 -1.2605 -0.327391
        -0.74554 -0.214604 1.22291
        -1.05105 -2.35793 0.204077
        -0.598265 -1.00954 -0.696621
        -0.914526 -0.587976 0.15869
        0.454006 -0.371363 1.00391
        -0.145472 1.1799 -0.109246
        -0.00883963 1.16713 0.389125
        0.30937 -0.519749 -0.557235
        0.694472 0.0955565 -0.292908
        0.734366 1.44767 0.56196
        1.82112 -1.40202 -0.14642
        0.233104 1.34224 0.112773
        0.939106 -0.778215 0.8924
        -0.0556316 0.754179 0.441453
        -0.617118 0.95506 -0.761069
        -0.722463 -0.6048 1.02379
        -0.929484 -0.510218 1.60406
        -1.37048 1.03881 -0.383165
        -1.06669 2.05601 0.982318
        -1.19712 -0.198835 0.447586
        -0.935848 2.0793 -0.339668
        1.11772 0.737284 -0.347651
        0.636765 0.997977 -0.445793
        -0.0399154 0.74242 0.327025
        0.306521 0.544556 -0.729893
        0.129794 1.01807 0.0895908
        -0.214657 -0.505691 -1.49127
        -0.518664 0.339094 -0.0954421
        1.02434 0.902466 0.563615
        0.0797469 0.768065 0.573945
        -0.121874 0.21732 -1.40189
        2.33824 0.144581 -0.134784
        -1.19534 1.69939 0.0242518
        -1.06436 2.04053 1.30437
        1.19832 1.97808 0.321538
        -0.904159 1.26232 -1.46109
        -0.707497 1.63182 0.612915
        -0.38887 0.135079 -0.823162
        0.0278505 1.73573 -0.329487
        0.0727541 0.911451 0.270871
        -0.614314 0.287253 -0.496755
        0.794981 1.12964 0.112497
        0.428526 1.0296 -0.251294
        -0.216645 1.06537 -0.142449
        0.116668 1.38541 0.6194
        1.38981 2.10285 1.84357
        -0.770011 2.29483 1.2371
        0.46576 1.87723 -1.00728
        -1.00141 1.40652 0.23367
        0.310518 2.47783 -0.574611
        -0.142178 1.90409 0.630866
        -0.197444 0.930361 0.234752
        0.630335 1.27374 -1.18706
        0.358546 1.80607 1.23689
        0.658681 0.299514 0.821535
        -0.236972 2.14849 -0.970197
        -0.756359 1.43131 0.543671
        0.154048 0.706405 -0.559858
        0.148738 1.79786 -0.131125
        -1.05366 2.94345 -0.325649
        -0.256535 0.967972 0.308508
        0.102751 0.385535 -0.599648
        -0.455258 1.83954 1.0439
        0.246955 0.552259 1.50029
        1.0064 1.69843 -0.684471
        -0.189407 0.594268 -1.02258
        1.13642 1.29305 0.0886883
        -0.141397 2.01621 0.0494334
        0.693664 1.01367 0.485667
        -1.03122 1.71376 -0.216256
        1.58053 0.905932 -0.213646
        -0.436081 0.930259 0.464242
        -0.301333 2.06011 -0.112563
        -0.457326 0.707859 1.07546
        -1.60334 1.21776 1.23634
        0.807034 1.0519 -0.127088
        0.00111579 1.52577 -2.03444
        -2.13581 0.800525 -0.374144
        -0.419284 1.17064 0.537436
        0.891202 1.27397 -0.485588
        0.00334719 1.88805 -0.107358
        -0.271492 2.1127 -0.518807
        -1.0723 2.58365 -0.408388
        -0.26554 1.96769 -0.667291
        0.224637 1.17618 0.144437
        0.424316 1.29869 -0.750977
        -0.819225 0.566783 -0.96904
        0.0429362 1.57222 -0.983454
        0.00817743 0.0159226 -0.811853
        -0.454213 1.36931 -0.128787
        0.0822049 1.02879 0.138428
        0.635058 0.930941 -0.35947
        0.220503 0.591162 0.106138
        0.0810806 0.999854 -0.548292
        0.638563 1.0117 -0.0928963
        0.704395 1.77558 0.533723
        0.620075 1.62627 -0.404113
        0.291208 2.23467 -0.257454
        0.168039 1.21524 0.296071
        0.468358 1.28096 -0.326316
        0.78508 1.60208 -0.727906
        -0.741515 -0.289752 0.612025
        -0.0909255 1.47134 0.016748
        -0.638835 1.31286 -1.65806
        0.0317845 1.49829 1.2935
        -0.119745 0.91249 0.518887
        1.31601 1.43525 -0.47468
        -0.152119 2.95576 0.374634
        0.0669236 1.94922 -0.743183
        -1.1626 0.712413 0.562628
        -0.813658 1.9725 0.473505
        0.271857 0.305855 -0.121477
        -0.548803 1.31371 1.23251
        -0.972099 2.51775 -0.250111
        -0.900089 -0.687809 0.0593516
        -0.127535 1.71183 0.519775
        -0.341771 1.65203 1.80157
        -1.37811 1.75383 0.669969
        -0.379276 0.726453 0.83271
        0.398386 1.1551 1.10454
        -0.496867 1.00946 0.211049
        -1.56533 1.50054 0.487302
        -0.15775 1.23624 0.500396
        0.780176 1.28957 0.534238
        -0.179274 1.37455 -1.83133
        -0.749735 1.25488 0.0957204
        0.00460532 0.816959 0.271867
        -0.0414331 1.03101 0.448653
        0.835598 0.0759724 0.562235
        -0.122567 0.954252 -0.306433
        -0.49356 0.853036 -0.76728
        0.516546 2.50559 0.581765
        -0.259887 1.97543 0.450243
        0.373066 1.61872 -0.255832
        0.175155 2.31777 0.699036
        -0.0289427 0.828926 -0.601177
        0.302734 1.84264 0.488299
        0.544858 2.50481 -0.593955
        -1.27726 0.368706 -0.18552
        -0.0712252 2.21607 0.850937
        -0.291383 1.68548 1.15393
        -0.920233 1.52412 -0.833668
        -0.670303 1.14676 -0.522832
        -0.874886 1.02195 0.216321
        0.0963398 1.89454 -0.247092
        1.41732 1.8658 -0.821787
        -0.224323 1.24855 -0.687554
        -0.586363 2.92323 -0.985276
        0.397527 1.32281 -0.692447
        0.438318 1.28809 -0.856086
        0.356217 1.26111 0.420438
        -0.947495 1.89906 -1.29892
        -0.607894 1.42658 0.443294
        -0.364956 2.71519 -0.205253
        1.22074 2.05985 -0.523867
        -1.10421 0.939691 0.217571
        0.884815 1.11839 1.21744
        -0.675211 1.9975 -1.21682
        0.380086 2.2057 0.0309214
        -0.949598 1.02582 -0.400989
        0.0781594 1.71073 -0.672141
        -0.726384 2.40417 -0.447424
        -0.173822 -0.17421 -0.221838
        -0.67593 1.08201 0.592377
        0.629039 1.89707 -0.285112
        1.07849 1.9801 -1.73919
        1.8294 0.440779 0.483732
        -0.933505 2.03422 0.607877
        -1.09905 1.3976 0.248447
        -0.0719999 1.77255 -0.939804
        -0.524157 1.63428 -1.50923
        1.47631 1.05935 0.704351
        -0.095865 1.18884 -0.0992212
        0.713956 1.28074 1.26498
        -1.57797 1.44711 -1.32242
        0.623177 0.174175 0.210173
        0.556344 -1.13221 -0.55279
        0.0231106 -1.11614 0.992764
        1.01123 -1.56592 -0.17882
        1.30413 -1.98841 -1.21222
        0.817644 -0.559216 0.0490371
        -0.626315 -1.6834 -1.1796
        1.14713 -1.42135 0.584475
        0.497329 -0.338657 -0.554684
        1.25011 -1.10977 -0.495132
        -0.365506 -1.57839 1.26425
        -0.297777 -2.33106 0.00460606
        0.325586 -0.813733 0.47344
        -1.38705 -1.05595 -0.054345
        0.347329 -1.77975 -0.386838
        0.0510872 -0.110854 -0.276695
        1.58271 -0.594913 0.394412
        0.477565 -2.32175 -0.35343
        -0.485677 -0.464473 0.126275
        0.139519 -2.56372 -0.508134
        0.339619 -1.23872 -0.418
        -0.390047 -0.557308 1.27409
        0.586143 -2.30919 1.18104
        0.8031 -2.56936 -0.951084
        0.650392 -0.966418 -0.97916
        -0.334106 -2.0266 -0.482265
        -0.976642 -1.68967 -0.319275
        -0.357848 -0.617131 0.868542
        -0.166449 -1.82557 1.13875
        -0.425913 -2.44208 0.223815
        -0.896423 -2.76278 0.705123
        -0.258057 -0.766258 -0.865849
        -0.282695 -0.955879 0.0300297
        0.706291 -0.953942 -0.373649
        -1.10094 -2.01959 -0.284989
        0.354614 -1.69851 -0.0893486
        0.378542 -1.30959 -0.409462
        1.10372 -1.59021 -0.55457
        1.31311 -1.6687 -0.606122
        -0.0547354 -0.714929 0.842176
        0.065296 -2.8768 -1.12642
        0.209661 -0.803074 -0.525514
        0.727005 -1.30669 -0.93354
        0.825475 -1.07136 0.857977
        0.0558249 -0.890338 -0.272197
        1.12708 -1.4584 0.852103
        -0.36376 -0.683188 0.676904
        0.0795539 0.0899486 0.0787675
        0.134886 -0.562481 0.336397
        -0.495014 -2.00045 -1.03861
        0.603547 -1.1089 0.394385
        0.463065 -0.668624 -0.165807
        -0.613681 -0.927147 0.972286
        -0.666254 -2.05992 -0.339294
        -0.849687 -0.830158 -0.649864
        -0.369065 -1.58192 0.597838
        -0.837268 -1.21139 -0.162341
        -0.148713 -2.26131 0.316987
        -0.164737 -0.633058 0.6644
        1.00993 -1.08483 0.116188
        -0.61636 -1.03043 -0.586586
        1.39902 -1.96724 0.359043
        -0.261878 -1.00445 -2.29378
        0.376367 -1.26068 0.669834
        0.416996 -2.5649 1.08346
        -0.91224 -1.62182 0.374317
        -0.0634902 -2.64821 0.73907
        -0.201298 -1.76139 0.306608
        0.20496 -2.16988 -0.608879
        0.243112 -1.73796 -0.710002
        0.58034 -1.33369 0.0575793
        -0.854912 -0.927829 -0.695783
        0.657493 -2.14645 0.161964
        -0.399037 -2.03157 0.94231
        0.156781 -0.50097 -0.0437247
        -0.749955 -0.758134 -0.00735622
        -0.187793 -0.887117 0.261781
        -0.668102 -1.73167 0.594774
        0.16371 -1.41551 0.418272
        0.82058 -1.6031 1.40608
        0.872166 -1.48609 0.260112
        0.268466 -2.09862 0.801612
        -0.822264 -0.648654 -0.538859
        -0.0199175 -0.0941075 0.177774
        -1.86626 -2.17709 0.700635
        -0.419569 -1.24123 0.475982
        0.392367 -2.63803 -0.852352
        0.478319 -2.29102 -0.295461
        1.14378 -2.48894 -0.114972
        0.0512857 -2.03391 1.23867
        -0.441999 -1.7404 0.409345
        0.761442 -0.936592 -0.201045
        -0.230971 -1.90744 0.568462
        -0.892558 -1.73244 0.135847
        -0.334423 -1.73387 -0.523391
        -0.938855 -1.90571 0.907571
        -0.212211 -0.424782 -0.463784
        0.228771 -1.25714 0.733141
        -0.897404 -0.121853 -0.675534
        1.08934 -0.280745 -0.499188
        -0.937258 -0.288472 -0.643774