<?xml version="1.0" encoding="UTF-8" standalone="no" ?>
<VTKFile byte_order="LittleEndian" type="UnstructuredGrid" version="0.1">
  <UnstructuredGrid>
    <Piece NumberOfCells="0" NumberOfPoints="1764">
      <PointData>
        <DataArray Name="velocities" NumberOfComponents="3" format="ascii" type="Float32">
        -0.160146 -2.52086 -0.519242
        -0.0253654 -1.77514 0.903839
        -0.0965664 -0.556126 -0.911239
        -0.098551 -1.14163 -0.389926
        0.00560529 -2.31373 -0.00263757
        -0.587722 -1.64196 -0.227614
        1.53365 -1.30357 0.492936
        -0.949037 -1.39894 -0.301988
        0.627044 -0.609266 -0.938082
        -0.264577 -2.70388 0.0334692
        -2.21696 -1.30603 0.0526402
        0.946646 -1.89251 0.133788
        0.790719 -1.94089 -0.185205
        0.80748 -0.614924 -0.00339517
        0.183787 -3.10988 0.270845
        0.134835 -2.89909 1.26108
        0.0960817 -1.34671 -0.963876
        -0.0857309 -0.97135 -0.215226
        0.455294 -1.60317 -0.873514
        1.20783 -0.305745 -0.705321
        1.50484 -0.865044 -1.58852
        0.147399 -0.907528 1.14699
        0.0101979 -1.72304 0.456966
        -1.86388 -0.725834 0.18369
        0.077496 -1.31716 -0.107689
        0.22963 -1.15131 1.48468
        0.108182 -1.41795 -0.210116
        -1.15422 -0.76856 0.981806
        -0.329279 0.286732 0.891223
        -0.445824 -1.2643 1.12751
        -0.0544549 -1.11329 0.373253
        -1.20173 0.0538192 -0.170905
        -0.579136 -1.40248 -0.425906
        -1.32097 -1.6219 -0.264648
        0.191633 -0.436267 0.279185
        0.0959881 -0.045952 -0.471175
        0.329816 -1.91412 -0.522291
        -0.00495234 -2.64179 -0.4323
        -0.419842 -1.96146 0.369353
        -0.383608 -1.76498 1.49483
        0.503509 -1.61218 0.983462
        -1.15088 -0.887332 0.5301
        -0.0686753 -1.51129 0.929149
        -0.995232 -0.184423 -0.50111
        -0.417837 -0.869408 -0.771959
        1.10196 -2.61388 0.689383
        -0.21761 -1.51466 -0.191406
        -0.878583 -1.08864 0.018231
        0.776983 -0.36849 1.15
        0.758749 -0.970685 0.834081
        -0.92057 -0.323209 -0.35415
        0.019756 -2.63063 1.11602
        0.297707 -1.52951 0.314946
        0.393535 -1.03315 -0.0075572
        -0.0334291 -1.38497 2.12674
        0.186743 -1.61939 1.02298
        0.333018 -0.488112 1.11176
        -0.271008 -1.94347 -1.19926
        -0.514687 -1.94948 -1.03632
        -0.265995 -1.3588 0.99029
        0.746229 0.346449 -1.3022
        -1.00353 -0.390356 0.849397
        0.776357 -1.20139 -0.931289
        0.197973 -1.06611 0.587269
        -0.223844 -0.142784 -0.984082
        -0.0148913 -1.47991 -0.122128
        -0.15759 -0.55009 1.17551
        1.51814 -2.93305 -0.0507575
        -1.0693 -1.27424 1.15886
        -1.28622 -0.88057 0.117168
        -0.0876706 -0.889534 0.492995
        0.14774 -1.53364 -0.146253
        1.41361e-05 -1.19177 1.52982
        0.165793 -1.27964 -0.936184
        0.524842 -2.03299 -2.22249
        0.369794 -1.91946 0.177342
        0.251504 -1.42979 0.180556
        -0.356086 -0.686078 -2.92645
        -1.55426 -0.869699 0.159242
        -0.514664 -1.63926 0.96969
        1.84552 -3.29672 0.0264777
        0.980962 -1.59462 -0.175621
        -0.490313 -0.70495 1.14661
        -0.216419 -0.253396 0.564252
        0.681362 -1.57293 0.0798548
        -0.96722 -2.11663 0.000164527
        0.506588 -1.73491 0.361816
        0.122048 -0.747496 0.594715
        -0.846375 -2.17028 1.02547
        -0.360643 -0.350171 -0.192512
        -0.983399 -2.33171 0.206738
        -0.109538 -1.20785 1.4298
        -0.978105 -0.384912 -0.579457
        -0.103366 -1.00603 -0.804077
        0.127095 -2.36191 0.823544
        -0.200799 -1.24187 -0.0504893
        -1.08469 -1.69276 1.49148
        0.823008 -1.06167 -0.917673
        0.894373 -0.842062 -0.597874
        -0.148161 -0.689043 0.240192
        0.892608 -1.9142 -0.0524597
        0.713594 -1.99313 0.649742
        0.392891 -0.245748 0.341354
        0.0340342 -0.680598 0.677264
        0.748092 -1.28432 -0.264152
        -0.162831 -1.04895 -0.74661
        0.452813 0.151722 -0.158871
        0.821578 -2.13961 -0.743791
        -0.29538 -1.27532 -1.50548
        0.444946 -0.871592 0.752993
        -0.413786 -1.66267 -0.957427
        -0.237378 -1.98686 -0.303781
        0.711747 -1.57505 0.23921
        0.307539 -1.43443 -1.01783
        -0.650154 -0.543521 -0.883819
        0.838576 -0.152141 -0.0336869
        -0.163049 -1.18475 -0.0704449
        0.540661 0.276652 0.848778
        0.953071 -0.709903 -1.82682
        -0.137635 -1.08894 0.191637
        0.45447 -0.706541 -0.116857
        0.797808 -2.51738 0.0652692
        -0.406606 -1.64667 -0.268028
        0.0978648 -0.678942 0.0833637
        -0.397743 -1.5288 -0.826568
        0.199502 -0.817121 0.600372
        0.357798 -1.35948 -0.569345
        -0.728765 -1.54456 0.424901
        -0.530617 -1.16385 -0.211672
        0.527525 -0.805825 -0.00787158
        1.09584 -1.91818 1.09989
        0.628683 -2.13322 0.714582
        0.118251 -1.73069 0.107384
        -0.450698 -1.322 1.72014
        -0.83863 -1.69493 0.473976
        -0.457855 -1.0337 0.422076
        -0.502772 -1.1018 -0.467378
        1.16663 -1.33257 -0.3271
        -0.185085 -0.190266 -0.473776
        0.172545 -1.63037 0.0693761
        -1.09811 -2.26162 0.221539
        0.482821 -0.20153 -0.247201
        0.126579 -1.80172 -0.483215
        -0.264163 -0.909057 -0.12137
        0.822963 -3.37329 0.13262
        0.441331 -1.43781 -0.0254952
        -0.664923 -1.27439 -0.236421
        0.39905 -1.3788 -0.923866
        -0.755785 -0.26953 0.908717
        -0.0989066 -2.44372 0.382835
        -0.510508 -1.02347 -0.166685
        0.873282 -2.76963 -0.974192
        1.42134 -1.82638 0.109046
        -1.04601 -0.89019 -2.44142
        -0.39195 -0.418459 0.0712779
        -0.926405 -0.286015 -0.108749
        -1.02367 -2.12451 -0.493372
        1.27151 -1.11512 0.354226
        0.38791 -0.948997 -0.137064
        -1.11724 -1.28511 0.697616
        -0.220793 -1.01166 -0.311381
        0.790098 -1.07505 0.219985
        0.346652 -3.00966 -1.17082
        0.539921 -0.360506 1.283
        0.295211 -0.942411 0.159982
        0.445145 -0.422326 1.02956
        -0.939337 -1.33058 0.187262
        -0.676932 -1.61992 1.91945
        -2.27605 -1.2762 -0.663332
        -0.0445016 -2.37582 -0.28916
        -0.580166 -0.457341 1.43269
        -0.223691 -0.63332 1.99093
        0.51012 -0.526667 -0.246449
        -0.0791754 -1.46058 0.907796
        -0.763586 -1.9455 0.467839
        -0.833988 -1.623 -1.57578
        -0.597084 -2.27127 -0.667665
        -0.578075 -1.38445 -0.902124
        -0.615347 -0.665185 0.413024
        -1.46436 -1.36398 0.00679994
        -1.3784 -0.913112 0.337026
        0.234787 -1.27142 -1.00537
        -0.165244 -1.45084 -0.162594
        1.02446 -1.05665 1.14181
        0.701859 -2.13422 0.995359
        -0.165666 -0.00816616 0.69721
        -0.193499 -0.577176 0.284381
        0.478272 0.0645625 0.519467
        -1.06146 -1.83094 1.3614
        -1.47441 -0.771424 -1.07177
        -1.27276 -1.5633 -0.651361
        0.20918 -1.42955 -0.273541
        -0.156855 -1.69233 0.230696
        0.51642 -1.36913 -0.0441901
        -0.648153 -0.114296 -0.439603
        0.341117 -0.387886 -0.17743
        0.784757 -0.321771 -0.100401
        1.87531 0.274436 -0.574851
        0.428234 -0.47738 -0.363809
        -0.305681 1.21461 0.126146
        -0.126861 1.08735 0.614755
        -0.0944159 0.996027 -0.746204
        0.532615 1.02142 -0.086148
        0.362388 -0.00182986 -0.545485
        0.670028 1.60432 -0.668823
        -1.11583 -0.590236 1.32589
        0.323621 0.202392 2.41705
        -0.588493 0.956577 -0.876719
        -0.555388 0.758113 -0.656714
        1.06124 0.548509 0.966906
        1.41795 0.594861 -0.0266554
        0.447127 0.747718 -0.687513
        -0.43528 0.00658816 -0.94155
        -1.03575 -0.221952 0.188797
        0.797247 -0.657561 -0.734995
        0.225714 0.118324 0.223567
        -1.11172 0.679514 -0.0633682
        -0.186195 1.69065 0.912442
        0.295508 1.32472 -0.210646
        1.34338 2.30788 -0.0247529
        0.386096 2.1052 0.437213
        1.50785 1.39472 0.534171
        -0.472315 1.22702 -0.796315
        0.112944 3.28553 0.551773
        -1.35032 1.33557 -0.114268
        -0.539952 1.20257 -0.552967
        0.68377 0.860728 -0.2184
        -1.29425 1.54674 -0.802936
        0.875705 0.716146 0.297029
        -0.257659 2.81305 0.362106
        1.5725 1.12533 1.05003
        -0.345356 2.39243 -0.210883
        -0.991093 1.19299 0.369822
        -0.235276 1.86936 -0.349582
        -0.422026 0.336342 0.221204
        -0.900164 0.883541 -0.0940686
        -0.180072 1.29367 -0.197162
        -1.02645 1.78594 0.43605
        -0.0368993 1.78458 0.038175
        -0.221955 0.656525 -0.727012
        0.306736 0.881786 0.630859
        -0.0775032 1.15406 0.332147
        0.440089 1.51146 -0.654042
        0.808757 3.488 -0.591806
        -0.593103 1.83701 0.047894
        1.22181 1.02774 -1.27124
        0.555644 1.92414 -0.881928
        -0.595439 1.45315 -0.560153
        -1.28178 2.24967 2.26459
        -1.20891 1.83249 0.667797
        -0.270992 0.721165 -0.628076
        0.90212 0.782461 -0.123083
        0.361769 -0.17895 -0.844803
        0.135363 0.582876 1.87932
        1.11418 1.67979 -0.071295
        -0.0905504 2.21204 -0.382653
        -0.601397 1.07937 0.597756
        -0.489975 1.3733 1.30509
        -0.873175 2.85851 -0.567539
        1.0568 1.35439 -0.588493
        -1.82392 0.737191 -0.841711
        0.693088 1.13184 0.315944
        0.136523 1.15715 0.635765
        0.0813839 0.661956 0.0317062
        0.392676 1.53474 0.572027
        -0.402069 1.32646 -1.02166
        -0.758313 1.83677 0.382576
        -0.562691 0.749138 0.713437
        -1.4357 1.71946 0.445386
        -0.985487 1.41025 0.244322
        0.0501765 -0.298721 -1.53285
        -0.0510655 1.06279 0.591141
        0.329293 0.0718779 0.639822
        -0.015578 1.00246 0.410984
        0.0236596 0.861806 -0.350741
        0.358203 0.388201 -0.377796
        0.30826 1.53155 -0.0717628
        0.107023 1.32225 -0.294428
        -0.798303 2.24659 1.47413
        0.12678 2.0379 -0.0607295
        -0.772557 0.304529 -0.905991
        1.11069 0.887487 0.0417008
        -0.570144 3.16911 1.01733
        -0.292876 1.28602 0.776572
        -0.411604 0.78935 -0.528795
        -0.48934 1.91074 -0.628436
        -0.0419029 1.41459 -0.366328
        0.283123 2.14489 -0.831858
        0.849412 0.152738 -0.477291
        0.898193 0.35638 0.287112
        0.192291 1.28222 -0.0634927
        0.967752 2.15524 -0.716876
        1.36007 1.00163 -1.12684
        0.99125 1.09849 1.00284
        0.384741 -0.245235 0.286452
        -1.14049 1.19727 -0.806131
        -0.37076 1.21241 1.392
        -1.05667 0.845636 -0.0244414
        0.142161 1.7812 0.0840528
        -0.323093 1.99179 1.22878
        -0.466021 0.340349 0.547153
        -0.844271 2.21435 0.342075
        -0.372041 1.89068 -0.735765
        -0.196403 1.35349 0.950498
        -0.868549 0.0595052 -1.02991
        0.319626 1.96236 0.382786
        0.160916 2.56589 -0.0927941
        -0.321995 0.0858099 -0.339874
        -0.27222 2.54415 -0.29619
        -0.517413 1.19646 -0.295087
        -1.72738 0.996833 0.041604
        1.39328 0.623097 -0.104208
        -0.323815 0.995582 0.175601
        -0.658056 1.17741 0.370287
        -0.766449 1.19855 1.05906
        -0.169399 1.38699 0.406518
        -0.65907 2.14412 -0.251948
        0.0799241 0.79206 -0.87219
        -0.169289 0.795372 1.31042
        -0.800766 1.87549 -0.258686
        0.163653 0.202237 -0.0764879
        0.0223273 -0.110447 -0.296619
        1.69003 0.0760685 -0.810291
        -0.241948 0.829418 0.626548
        -0.323992 1.66873 -0.527207
        0.213999 1.63524 0.337998
        0.179273 0.674862 0.891191
        1.34936 1.56935 -0.446161
        0.650168 1.70371 -0.0123795
        -0.236515 2.59582 -1.50359
        0.100596 1.2462 -0.266523
        -1.20179 0.855137 0.828177
        -0.304153 1.08606 -0.177719
        -0.160189 2.27784 0.0995358
        -0.26958 1.12198 -0.196561
        0.356584 0.210839 -0.143915
        -0.435008 2.12085 0.0898752
        -0.749606 1.47987 -0.192259
        0.103271 1.95518 0.172011
        0.187165 0.95926 -0.470813
        -0.346005 0.723972 -0.622757
        -0.110003 1.70728 1.14461
        -0.0863406 0.461403 -0.300185
        0.294311 2.16461 -0.370639
        0.172555 1.65172 0.474949
        0.00952279 1.26259 -0.638462
        1.00472 1.76438 -0.507765
        -0.431145 2.16249 0.67323
        -0.0251809 1.8604 0.493717
        0.505226 2.00836 0.0108407
        0.165272 0.74809 -0.22944
        -0.0963871 2.53573 0.872172
        -0.646648 0.762509 0.766528
        0.944061 1.1292 -0.711513
        -0.11429 1.30938 -0.54536
        -0.320403 1.7827 -0.337375
        1.64302 2.28547 1.44342
        1.07229 1.01697 -0.135986
        -0.337716 2.4244 -0.876762
        -0.187221 1.62202 -0.281421
        -0.403594 1.34098 -0.0759075
        -0.0738827 -0.2461 -0.225991
        -0.631216 2.5502 0.0913383
        -1.21631 1.31828 -0.275196
        0.145765 0.957213 -0.438016
        0.318578 1.65301 -2.03554
        -0.37615 1.77186 -0.327526
        1.07781 2.98747 -0.868592
        -0.393217 0.352092 0.0796855
        0.680925 0.674577 0.433524
        1.30176 1.18887 0.161735
        -0.0568178 1.33131 -0.793974
        1.00445 0.388705 -0.568548
        -1.00682 1.77723 0.851455
        0.908963 1.75397 1.2801
        0.324754 0.449121 0.419814
        -0.0766876 1.66291 0.650679
        0.768905 1.15471 -0.460043
        -0.705872 2.12226 -0.376548
        -0.555681 0.852541 -0.550133
        -1.01992 1.16911 0.188501
        -0.305978 1.65892 1.56338
        -2.00433 1.28782 1.11966
        0.231083 0.303549 -1.25445
        -0.346226 0.647024 0.0246883
        0.48207 0.823396 -0.0737923
        -0.172951 -1.7848 -1.21512
        -0.998276 -0.793933 -1.37257
        0.0734327 -1.29907 0.694059
        0.329797 -0.819597 1.40785
        -0.488181 -0.78599 -0.584919
        -1.33299 -0.887098 0.776843
        -0.602594 -0.958672 -1.86542
        -0.224256 -1.54313 -0.75785
        0.644676 -1.34029 0.554071
        0.531997 -1.38434 0.216222
        -0.309457 -1.40586 0.0402796
        0.489865 -2.62575 0.928806
        0.922858 -0.934169 -0.284627
        -0.182456 0.600628 -0.419404
        -0.0126285 -0.558049 -1.71498
        0.334905 -2.06953 -0.34733
        0.304621 -0.461803 0.992149
        -0.603864 -2.80666 -0.851834
        0.752842 -0.776165 0.127916
        -1.75219 -0.994799 -1.81336
        -0.685237 -0.966961 -0.444697
        -0.182639 -1.41753 -0.512223
        -1.09101 -0.174999 -0.776701
        0.452736 -1.7322 -1.4282
        0.091531 -0.865643 0.0520965
        0.949577 0.269026 -0.974261
        -0.0621629 -2.05412 -1.13262
        0.823645 -2.29558 0.206838
        0.786221 -2.52493 1.13488
        0.54958 -1.5781 -0.0762263
        0.19793 -2.28957 0.0263343
        1.15866 -1.4757 0.337078
        0.0642863 -0.5857 0.932401
        0.460149 -1.15107 -0.535004
        -0.248726 -0.405786 -0.676718
        -0.0749715 -1.22613 -0.407938
        -0.665036 -1.96908 0.32218
        -0.428727 -1.91652 1.31173
        -0.763108 -2.06765 -0.735285
        1.93445 -3.14025 -0.152874
        0.656325 -1.65842 0.888972
        0.311245 -0.272343 0.384668
        0.604939 -1.14811 1.65097
        1.22746 -1.24102 0.385968
        -0.529459 -1.23756 0.633416
        1.13982 -2.47603 0.157218
        0.784018 -0.31273 0.906571
        0.0327454 -0.275294 0.713971
        -1.68277 -1.1365 -0.402871
        0.738977 -1.46286 0.353136
        -0.447785 -1.10402 0.692949
        -0.25792 -1.87628 0.526001
        -0.558658 -1.6861 -0.0519584
        0.824799 0.0663682 0.166461
        -0.422508 -2.10837 -0.8683
        -0.107579 -0.951074 0.9798
        1.02176 -2.27884 0.910142
        0.18449 -0.205458 0.661553
        -0.418056 -1.10158 -0.436884
        -0.723477 -1.9489 0.0371455
        1.96714 -1.22716 0.422769
        -0.306566 -0.417295 0.000219721
        0.760302 -0.961383 0.521694
        -1.03106 -1.74677 -0.94239
        1.75151 -1.28728 0.867589
        1.29234 -2.34789 -0.00323754
        0.792969 -0.808348 0.761366
        -0.0446563 -1.37764 -0.877661
        0.021053 -2.24075 0.631487
        -0.485104 -0.696473 1.28894
        0.00973035 -0.695839 0.719538
        -0.405644 -0.787922 -0.658074
        1.1879 -1.40111 1.03818
        0.518114 -1.72405 -1.01218
        -0.0727947 -0.695721 -0.483595
        -1.20249 -1.10237 0.510002
        0.722315 -0.603849 0.00918638
        0.304236 -0.764302 0.396567
        -0.0899752 -0.800907 -0.363158
        0.0804811 -0.186727 -0.0350031
        0.969121 -1.52679 0.389874
        1.08431 -1.51141 -1.05143
        -1.10795 -1.10986 -0.261742
        -0.401727 -2.3561 0.393055
        0.180104 -0.412231 0.907255
        0.111834 -1.77557 1.2627
        -0.034064 -1.52286 -0.063532
        1.93134 -0.955837 1.58979
        -0.388874 -1.44241 -0.359508
        0.313161 -0.517355 0.486358
        0.472071 -1.39666 0.220455
        -0.800746 -2.51781 -0.166959
        1.29653 -1.93971 -0.295126
        -0.185685 -2.46198 0.307878
        0.746285 -1.66768 -0.519035
        -0.149506 -1.36353 0.280746
        0.409925 -0.990858 -0.641394
        0.472059 -1.86402 0.801247
        -0.1067 -0.907699 0.163112
        -0.341053 -1.48439 0.650991
        0.141571 -0.132783 0.348551
        -0.550483 -1.67977 -0.155861
        -0.95547 -1.54092 -0.156583
        0.72402 -1.59636 0.803037
        -0.861512 -0.996663 -0.689122
        0.771343 -1.12997 0.269784
        -0.336606 -0.667437 0.481423
        1.67322 -2.27338 -1.0446
        0.0057945 -2.27063 0.624986
        1.21377 -0.544593 -0.0570489
        0.363841 -1.052 -0.416335
        -0.63272 0.299098 -0.088944
        0.381902 -2.82836 -0.219431
        0.328248 -2.03994 -0.34293
        -0.018826 -1.42609 0.227658
        -0.130598 -3.17259 0.717184
        0.360983 -1.90819 0.0586472
        -0.241817 -1.54955 0.683853
        0.513157 -1.1685 0.213405
        0.244043 -1.05342 -0.124079
        -0.238657 -1.62216 0.302813
        -1.24471 -0.845649 -0.607672
        -0.339941 -1.0108 -0.275742
        0.502855 -1.96958 -0.626304
        -0.0396529 -0.483104 0.646924
        1.6303 -0.616802 -0.893889
        0.851975 -1.51403 -0.0549491
        -0.730106 -1.51817 1.63869
        1.1863 -2.55201 0.268704
        0.0749482 -0.770706 0.540345
        -1.17793 -1.86977 -0.543822
        -0.17759 -2.43886 -1.30078
        0.563901 -0.285239 0.350008
        -0.358632 -1.33175 -0.646756
        -1.10803 -1.80203 0.272687
        0.315081 -1.73823 0.11693
        -1.74895 -1.46115 0.598742
        -0.0420943 -0.855028 0.142781
        -0.210642 -2.48773 -0.957549
        1.09017 -0.891491 1.14377
        -0.586034 -1.48112 -2.09792
        0.781991 -1.25329 -1.28925
        0.496923 -1.18495 -1.02581
        -0.730681 -1.04192 0.672921
        -0.00557622 -1.60237 0.211324
        0.0249179 -0.859697 0.686397
        0.373613 0.149209 0.755331
        1.18821 -1.03543 -0.723723
        -0.984616 -1.81688 -0.233148
        -0.405103 -0.981868 -0.884556
        0.433604 -1.70228 -0.507777
        0.879859 -2.22071 -0.918901
        -0.47842 -1.94887 2.35468
        -1.39238 -0.195567 0.28444
        0.668689 -1.47262 -0.995701
        -0.137647 -0.692024 0.283775
        0.0610757 -2.24821 0.222648
        -0.491485 -1.71157 0.262523
        -1.39504 -1.65043 -0.0760699
        0.859271 0.248309 -0.399602
        0.423662 -2.13218 -0.866752
        0.523109 -0.979489 -0.56848
        -0.748368 -1.62399 0.209601
        0.0117051 -0.795733 -0.770858
        0.195444 0.176401 -1.62795
        -0.085714 -1.49037 -0.556323
        -1.59012 -1.70701 1.06849
        0.00272407 -1.62133 0.32193
        -0.0579683 -1.23749 -1.0579
        -0.682358 -0.716369 -0.0607121
        -0.8264 -1.32933 -0.458523
        0.284293 -0.624995 -0.402544
        0.739762 -1.03121 1.04008
        -1.06587 -0.483749 -0.329614
        0.178875 -0.630356 -1.5981
        -0.559742 -0.27343 1.49774
        -0.443588 -2.57162 0.585924
        -0.682892 -0.885709 0.392464
        -0.23106 -0.716311 1.27488
        -0.920881 -0.809801 0.709366
        -0.501719 -1.65979 -0.9666
        0.528196 -1.51108 0.11219
        -1.28361 -0.619131 -1.21818
        -0.221915 -2.35722 0.762989
        1.13709 -1.37727 0.635863
        -0.0178058 -0.799584 0.374058
        -0.0426488 -0.849337 0.50705
        -0.128256 -1.02857 0.240604
        -0.385574 0.590766 0.0143024
        -0.0650509 0.55949 -0.0664274
        0.772863 0.318464 -0.12519
        0.0137793 0.790816 -0.934834
        0.389595 -0.438589 -0.0621759
        1.17535 0.119317 0.204781
        0.337885 1.54422 -0.720546
        1.51612 -0.476778 0.413657
        -1.14124 0.359861 0.538564
        0.787631 0.433986 0.473525
        0.847855 1.3032 -0.685392
        -0.196617 1.60518 0.719332
        -0.047722 -0.316025 1.20816
        0.957366 0.647948 -0.444497
        -0.764623 1.70715 -0.479071
        -0.720556 0.347246 0.743789
        -0.119244 1.82479 1.18815
        -0.111062 -0.600397 -1.09732
        0.562432 -1.23996 0.225217
        -0.205285 0.970324 0.152576
        -0.757984 2.05307 -2.15989
        0.818419 1.07029 -0.710177
        -0.178341 1.70078 0.0535817
        0.508433 -0.15483 0.460286
        -0.544879 0.775853 -0.0902017
        2.00779 0.567961 1.56502
        0.176705 1.2655 0.510018
        0.189261 1.59053 -0.314428
        0.592348 0.14709 0.409993
        -1.01313 0.507849 0.0933107
        -0.772467 2.04438 0.396117
        0.515493 1.30447 0.510318
        -1.52127 1.69073 -0.144303
        -0.313619 1.35313 -0.00364852
        0.583066 1.65495 0.985727
        -0.833785 1.04648 -0.77759
        1.21083 1.35384 0.334686
        -0.407559 2.23689 -0.00249938
        -1.46138 1.99266 -0.0992555
        0.15869 1.13674 -1.25925
        -0.000458661 1.6066 0.178312
        1.60759 2.02193 -0.19323
        0.62769 2.39599 -0.473787
        -1.50287 1.54017 0.408646
        -1.05865 1.09689 -0.00518438
        -0.665273 1.61204 0.648772
        -0.627008 1.30167 -0.859681
        0.520015 1.74665 -0.913663
        0.221808 1.40922 0.370167
        0.145632 -1.30825 0.647272
        1.46395 1.50434 -0.201633
        -0.862174 0.26568 1.75004
        -0.260929 0.594387 -0.228022
        -0.311996 1.09176 1.35232
        -0.545121 1.16702 1.09454
        -0.140812 1.25329 -0.471011
        0.892966 2.49278 -0.790358
        0.755526 2.12096 1.00516
        0.538128 1.66782 0.820894
        -0.443464 1.03194 0.045439
        0.474875 1.26237 -0.126169
        0.639553 0.908074 0.719627
        -1.63783 -0.0889849 0.574948
        1.35416 0.636194 0.815552
        0.0154821 0.750766 -0.725581
        -0.244938 0.841523 -1.43088
        -0.0277931 2.2164 0.842406
        -0.736993 2.48487 -0.531117
        -0.514679 0.331937 0.2309
        0.196993 1.24262 0.850156
        -0.589419 0.951743 0.752023
        -0.142835 1.26316 0.946871
        -0.0674956 0.985713 -0.802253
        -0.242926 2.28256 -0.910977
        -0.0863485 0.851907 0.0200783
        0.156122 1.04066 -0.637698
        -0.174562 1.08138 0.010743
        0.640922 0.904618 -0.329555
        -1.48128 1.13597 -0.528759
        -0.186158 1.31422 -0.632647
        0.624802 0.464381 -0.837589
        1.11128 1.81542 0.966977
        -0.374458 0.909652 -0.112575
        -0.0507715 1.33979 -0.105366
        -0.331988 2.18556 -0.369131
        0.641231 0.495785 0.847573
        0.736923 0.961547 0.864561
        0.194091 0.466009 0.202928
        -1.66166 2.53373 0.62359
        0.192568 1.03863 -1.86719
        -1.14996 1.85613 -0.629165
        0.467526 2.93067 0.23465
        1.14935 0.142054 0.395608
        -0.0624174 0.797976 -0.667664
        -0.521715 1.92656 0.527442
        -0.450554 0.15349 1.46425
        -0.631416 0.686877 0.456254
        0.00736923 2.33339 0.213701
        -0.0726093 0.535139 1.22198
        0.335399 0.548108 -0.0653468
        0.454065 1.79286 -0.338316
        0.989196 1.08576 -0.0520563
        -0.392136 1.46128 1.2031
        0.21326 1.42028 -1.334
        -1.28598 0.890056 -1.08619
        -0.552803 1.21841 0.0885187
        -0.884358 0.5744 -0.400373
        -0.338553 0.665215 0.328737
        0.970769 0.869873 -0.042221
        -1.35363 1.42489 0.480719
        0.0937593 1.14785 -0.0531099
        1.26529 0.648078 0.655267
        -0.790102 1.2313 0.222989
        -0.41232 1.50913 -0.437294
        -0.945227 0.731089 -0.034402
        -0.982489 1.84458 -0.0544031
        0.848335 1.20864 -0.602412
        1.13591 1.98633 0.842706
        -0.317772 0.88836 -1.35162
        0.297613 2.30293 -1.51732
        -0.350483 0.84574 -0.214167
        -0.466923 1.46043 0.177941
        0.386591 1.27269 -0.704569
        -1.46369 2.17931 -2.11568
        0.79398 2.06151 0.40432
        0.470203 0.57267 -1.02915
        1.55752 1.2371 1.24106
        -0.0253436 1.75166 -1.05782
        0.49776 0.900075 -0.970472
        0.195718 0.474242 -1.99652
        0.42316 1.00261 0.688986
        0.814762 1.71645 0.203495
        -1.2309 1.23113 -0.408043
        -1.15361 0.844953 0.547503
        -0.323143 1.71794 -1.32561
        -0.213551 1.90766 0.343955
        -0.402266 2.39474 -0.707301
        0.517289 2.26541 0.167224
        -1.03753 2.63408 0.17743
        -0.125843 0.624929 0.0994693
        -1.08779 1.12113 -0.790098
        0.233388 1.10763 -0.370455
        -0.259442 0.258987 0.594338
        0.625448 1.49747 -0.388594
        0.465764 2.62588 1.41168
        -0.287658 1.42919 0.916143
        0.449491 1.08761 -0.204828
        0.0293371 2.0073 -0.767031
        -0.446506 0.766065 0.622044
        0.87822 1.11426 -1.0596
        0.359696 1.18185 -0.952367
        -1.27083 1.2269 -0.563378
        -0.422139 0.714041 -0.126946
        0.0151332 1.14205 -0.202981
        0.651685 0.409191 -0.526987
        -0.207461 2.02296 1.07155
        -0.460808 1.12147 0.0989423
        -0.124629 1.76153 0.0157098
        1.28161 1.81279 0.3949
        0.354481 0.962564 0.583776
        0.331308 1.49744 -0.332228
        -0.19869 -1.5106 -0.839772
        -0.0544648 -1.35563 1.57764
        -0.842347 -1.13134 0.418759
        -0.0132526 -1.71446 -1.19525
        0.190708 -1.35527 -0.0153086
        -0.0620479 -0.570744 0.416848
        0.657112 -3.26448 -0.395469
        -0.53636 -1.71876 -0.179697
        0.286243 -2.55493 0.616195
        0.715353 -0.331168 -0.293698
        -1.64996 -1.25934 0.948415
        -0.78131 -1.71479 -0.326294
        0.701221 -0.921518 -0.650716
        -0.479509 -0.774518 -0.896185
        2.33727 -2.25618 -0.249211
        0.752808 -1.38206 1.31271
        0.246518 -1.68263 -0.772586
        -0.381446 -2.11973 1.64085
        -0.169734 -1.92409 -0.5126
        -1.17128 -2.39008 0.0462868
        0.111144 -2.43005 0.300194
        -0.398082 -1.93987 -0.213113
        0.70184 -0.303515 -0.337316
        0.0828779 -0.907077 -0.615805
        0.287944 -1.47385 0.0907793
        -0.634875 -0.261132 -1.01802
        -0.998177 -2.42733 -0.276749
        -0.150543 -0.446847 1.22771
        -0.0571828 -1.20262 0.471472
        -0.2262 -2.0265 -0.493234
        -0.272943 -0.441181 1.00919
        0.422307 -1.12327 1.21503
        1.29999 -0.886545 0.675505
        -0.316779 -1.59112 -0.390385
        1.19192 -2.07484 -0.210596
        -0.558079 -0.829327 -0.986738
        -0.290029 -2.34131 0.289684
        0.541783 -1.51836 -0.466666
        0.812321 -1.07955 0.88089
        0.101211 -0.872814 0.733258
        -0.0655043 -1.12007 0.711483
        0.173685 -2.10471 -0.422788
        -0.55582 -1.41676 0.115106
        0.0321743 -1.06343 0.078084
        0.579508 -1.06047 -0.62096
        1.30791 -2.81025 -0.233841
        0.369149 -1.62073 0.658073
        1.79091 -0.988622 0.710854
        0.335435 -0.33992 -1.08461
        0.71865 -0.97504 -1.06405
        -0.770399 -1.23169 -0.132357
        -0.0203283 -1.93988 1.36268
        0.270144 -1.19042 0.420913
        0.0717239 -0.111711 -0.0911533
        -0.395199 -0.496186 0.410939
        -1.29438 -1.09144 -0.0665132
        -0.411282 -1.07382 -0.906103
        -0.198368 -1.88767 -1.18024
        0.200347 -1.3614 -0.058978
        -1.30195 -1.36358 -0.510462
        -1.74015 -1.2322 -0.537514
        0.933661 -0.348255 -1.03188
        0.293923 -0.718446 -0.484917
        0.154856 -0.924589 -0.521274
        -0.210525 -1.98371 0.118964
        -0.660584 -1.22361 0.257067
        -0.88212 -1.44985 -0.729854
        0.157175 -1.35766 1.04015
        1.31017 -2.73497 0.938173
        0.672795 -1.45846 0.129798
        0.941769 -0.779422 -0.181444
        -0.771684 -1.47052 -0.875235
        2.29971 -1.34657 0.169776
        -0.131769 0.598879 0.598668
        0.854144 -1.76923 -0.0676818
        0.0585286 -1.23631 0.0136755
        -0.769268 -1.26751 0.846266
        1.0992 -1.81924 1.0912
        0.794209 -1.93429 0.300341
        -0.0758427 -0.88537 -0.499731
        -0.705789 -2.46576 -0.654128
        -1.01002 -1.26443 -0.785114
        -0.409564 -2.23966 0.508544
        -0.601861 -2.82195 -1.11842
        -1.89845 -1.84129 -0.882206
        -0.278411 -1.52433 -0.873381
        0.666696 -1.69425 0.181232
        -0.705689 -0.660303 -1.06484
        0.319125 -0.979068 -0.489903
        0.952294 -1.14126 -1.14142
        -2.19188 -0.747744 -0.647689
        0.4073 -1.18421 -1.08695
        0.372703 -0.177741 -0.804702
        -0.50683 -0.901495 -1.08286
        -0.527493 -0.779838 -0.269979
        -0.483001 -0.988103 0.782376
        -0.995609 -0.92877 -1.59687
        -0.412903 -0.869521 -0.343266
        -1.68149 -1.45805 0.587245