<?xml version="1.0" encoding="UTF-8" standalone="no" ?>
<VTKFile byte_order="LittleEndian" type="UnstructuredGrid" version="0.1">
  <UnstructuredGrid>
    <Piece NumberOfCells="0" NumberOfPoints="1764">
      <PointData>
        <DataArray Name="velocities" NumberOfComponents="3" format="ascii" type="Float32">
        1.55717 -0.691913 -0.358028
        -0.0320212 -1.80436 0.721853
        -0.148105 -0.836544 -1.20036
        -0.218519 -1.4856 -0.550165
        -0.805056 -1.28357 -0.0889618
        0.078392 -1.2431 0.988182
        -0.578427 -1.46299 -0.543161
        -1.12437 -0.894569 -0.381283
        0.299392 -1.33238 -1.95003
        0.407359 -1.9296 0.670364
        1.19691 -2.1202 -0.769931
        0.382068 -0.48314 -0.207703
        0.0969206 -1.31641 -0.138949
        -1.52568 -2.42138 2.08903
        -0.121481 -2.15174 0.125508
        0.457458 -2.69146 -0.67998
        0.514082 -1.94263 0.00950162
        -0.160417 -0.89237 -0.0714658
        0.0553285 0.0436781 -0.819991
        0.346031 -0.693258 0.694111
        -0.0451312 -0.698292 0.86454
        0.588441 -1.65373 -0.0159679
        0.825729 -2.30267 0.874253
        -0.437908 -0.596448 0.654667
        -1.36426 -0.35917 0.191346
        -0.230937 -0.864705 0.557712
        -0.468293 0.0201108 0.24696
        0.329555 -1.47393 -0.363948
        -0.853532 -1.85608 0.375783
        0.0749791 -1.81901 -0.0643185
        0.287459 -0.367071 0.0703599
        -0.0200893 -1.36195 0.606238
        -0.0233247 -1.35454 -0.204848
        0.902356 -0.76965 0.822288
        -0.40311 -1.0269 0.312577
        0.2143 -1.70596 0.943691
        1.00694 -1.51242 0.098402
        0.385319 -1.57163 -0.187116
        -0.870365 -1.07405 -0.420151
        0.720843 -0.604678 1.42228
        -0.402723 -0.652889 0.797031
        0.847506 -0.433036 -0.721067
        -0.721462 -2.89612 1.45368
        -0.73165 -1.40794 1.63839
        0.704551 0.00493283 0.00774813
        0.53576 -1.60241 -0.316349
        -1.13107 -0.975648 0.95478
        -1.03661 -2.5392 1.13292
        0.203693 -0.679738 -0.576626
        0.395334 0.343431 0.404246
        1.73615 -1.33365 0.509359
        -0.612144 -0.887423 -0.263233
        0.48283 -1.9718 -1.5225
        0.282814 -0.654622 -0.402983
        -1.44971 -1.35301 0.473007
        -1.63856 -1.39118 -0.164966
        0.762569 -1.99975 0.204462
        -0.0265371 -0.62517 0.645829
        1.0105 -0.820304 0.492914
        0.593687 -0.826808 -0.245573
        -0.0868615 -0.993595 0.0777706
        1.34964 -0.296774 0.0949656
        -0.390423 -1.43317 -1.21263
        0.0757469 -1.32182 -0.722604
        -1.61551 -3.16447 -0.293626
        -0.532202 -1.36794 0.24808
        -0.711379 0.00969437 -0.56678
        0.669365 -0.56139 -1.02526
        -0.161354 -0.776568 -0.238411
        0.93322 -1.13222 -1.26011
        -0.306275 -1.36409 -1.13115
        -0.573358 -0.671461 -0.511402
        1.58881 -1.4174 1.48283
        0.0304152 -2.07193 -0.249461
        -0.822663 -1.8766 -1.09188
        -0.397996 -1.83045 0.107538
        0.731918 -2.69498 0.168957
        -0.540389 -0.401878 -0.697053
        0.687687 -1.10332 -0.505713
        0.30363 -1.45709 0.161381
        0.483564 -1.61911 -0.0528129
        -0.892354 -0.576761 -0.876974
        0.331265 -1.55509 0.0392591
        0.0121902 -1.13717 0.0441517
        0.832625 -0.102931 -0.0373684
        -0.31029 -1.1448 -1.59398
        0.967906 -1.07134 0.550704
        0.232181 -0.299345 0.400252
        0.384806 -0.804551 0.321107
        -0.601522 -0.483342 -0.167623
        0.184435 -2.03473 -1.16484
        -0.475449 -0.905359 0.334924
        0.800759 -2.01564 0.188329
        -1.94303 -1.74869 -0.389422
        1.12076 -2.12885 0.593089
        0.0341343 -1.43912 -0.12802
        0.576972 -1.19784 -0.564606
        -0.721527 -1.69469 0.754836
        0.238175 -1.87774 1.0323
        0.393145 -1.16531 0.272295
        0.990827 -0.975785 -1.05719
        -0.407218 -1.22384 0.837263
        -0.212721 -0.237598 -1.10543
        -0.605621 -1.30059 0.13421
        -0.22893 -1.31806 -0.00102368
        0.0548927 -1.25295 0.0896663
        0.524904 -1.46346 -0.972894
        -1.31796 -0.575153 0.304004
        -0.14654 -0.545982 -0.32002
        0.403939 -0.980123 -0.228213
        0.857258 -0.167029 0.0732597
        1.33939 -2.06665 0.745165
        0.889386 -0.0923498 -0.796356
        0.00697191 -0.488419 1.25382
        -0.345755 -0.82138 -0.782126
        -0.934781 -0.840973 -1.30972
        -0.587389 -0.957503 -0.623793
        -1.01688 -2.05279 -0.475277
        0.663418 -1.71666 -0.149017
        0.179616 -3.33207 0.132812
        0.424977 -1.40338 0.0299507
        -0.16007 -2.24703 -0.858533
        -0.249875 -1.22743 -0.979768
        0.348074 -0.451923 0.194206
        -0.342587 -1.9565 -0.401617
        -0.077386 -1.39501 0.506785
        -1.65397 -1.57395 -0.407221
        0.518586 -1.36121 -0.510075
        -0.289706 -2.5261 -0.0861255
        -0.0334801 0.177154 -1.34408
        -0.12982 -0.428907 -0.499255
        -0.141777 -1.77471 0.0127885
        0.428716 -1.3069 0.0156626
        0.371211 -1.55864 1.00396
        0.335944 -2.20957 0.692385
        -0.245772 -2.24058 -0.0981562
        0.195937 -1.31743 -0.478458
        -1.22082 -2.0383 0.910209
        0.0275501 -1.20234 -0.70346
        1.05328 0.423485 0.715623
        0.559688 -0.507245 -0.182474
        -0.494238 -2.14607 0.383038
        -1.63528 0.670611 -1.69856
        0.661775 -1.4258 0.588371
        0.105391 -0.67476 -1.16861
        -0.622872 0.282964 -1.08919
        -1.11432 -0.482472 -0.264174
        -1.49661 -1.26086 -0.613821
        0.798907 -1.30949 0.0611464
        0.555877 -1.10318 -0.653845
        0.441563 -0.945219 0.210663
        -0.152777 0.280674 -0.501775
        -0.949073 -1.26244 -1.13878
        0.0966252 -2.01805 -0.134095
        -1.02126 0.0883325 -0.293723
        0.0101288 -1.9713 1.20615
        -0.451111 -1.38055 0.463772
        -0.389139 0.0449134 0.434185
        0.378757 -1.21492 1.57573
        -0.0510187 -1.56002 -0.78756
        -0.759435 -1.02067 0.0170021
        0.0941532 -1.38802 0.0945589
        -2.16951 -0.0262015 -0.245877
        0.262679 -0.833599 -0.343711
        -1.97289 -1.54904 0.231447
        -0.55101 0.274308 -0.549321
        1.08666 -0.686739 -0.224546
        1.16929 -1.0218 -0.351057
        -0.65924 -1.29221 1.4027
        -0.337011 -1.45124 1.45203
        0.109681 -0.45621 -0.150078
        -0.630408 -1.36326 0.996972
        0.186133 -1.11352 -0.493196
        1.26924 -1.04718 -0.833635
        -0.133995 -0.617668 -0.473896
        -0.365814 0.081947 1.21495
        -1.34622 -2.21042 0.277543
        -0.0822156 -0.555902 -0.152223
        -1.96617 -1.21853 0.341126
        0.111968 0.415317 0.527605
        -1.42705 -0.496719 -0.0948938
        0.556999 -0.587583 0.357918
        0.031477 -1.12135 0.13061
        0.480062 -0.214461 0.866637
        0.26417 -0.599459 -0.470344
        -0.650744 0.580112 -0.299129
        0.568346 1.46461 0.373266
        -0.553892 2.02323 1.38449
        0.216881 -0.173027 0.210066
        -1.33733 0.263196 0.219246
        -1.07131 0.220559 0.782304
        -0.440542 0.0938489 0.0855473
        0.0131292 0.739392 -0.0893169
        0.195561 -0.454085 -0.128068
        1.4279 0.566152 0.0601222
        0.170459 0.0190012 -0.160491
        0.552269 0.914474 0.640523
        -0.61607 0.295391 0.341892
        -0.925856 1.89027 0.118601
        -0.102333 0.657691 -0.556278
        -0.494173 1.11806 0.271879
        0.678903 1.95345 0.413907
        0.238751 2.65007 -0.142171
        -1.01479 0.849342 1.27606
        1.55683 0.467308 0.472357
        -0.239878 0.997327 0.577042
        -0.131464 0.162756 -1.10971
        0.266367 2.62549 0.157685
        -0.295086 1.74494 -0.948589
        0.869691 1.71323 -0.850687
        0.449219 1.25435 0.317854
        -0.143358 1.231 -1.13204
        -0.413367 1.8452 -0.411653
        -0.751349 2.37635 0.690772
        -0.159358 0.727677 -1.19344
        -0.101514 2.83465 -1.2407
        0.368609 -0.0871861 -0.67911
        0.055882 0.780593 -1.18596
        -0.454648 3.05855 0.297622
        1.20025 1.99028 -1.3217
        -1.49669 1.45183 -0.705976
        -0.872369 2.68112 -0.0707288
        -0.79697 1.04165 0.138727
        0.686064 1.8551 0.891486
        -0.228822 1.80416 -0.972098
        -0.177913 1.64791 -0.896733
        1.22525 0.570953 -0.0271988
        0.296693 1.73083 0.607755
        0.901335 1.27035 0.909256
        0.59584 1.99507 -0.515855
        -0.136272 1.66638 -0.483913
        0.288862 1.21701 -0.0474256
        0.401308 0.227545 -0.758524
        1.88389 1.23916 -0.897449
        0.0690072 1.24154 -0.139781
        1.56122 1.45187 -0.503481
        0.510436 1.92262 0.772596
        0.642218 1.82965 -0.780528
        0.632908 2.00023 -1.09908
        0.459873 2.04653 -0.539808
        0.0962797 1.9089 0.0451218
        -1.0625 1.94441 0.00492235
        -0.181088 0.551727 0.746929
        1.02385 1.8286 -0.187718
        -0.239751 1.23024 1.5037
        -0.0750895 1.1685 -0.647772
        -0.411318 1.31256 0.031103
        0.132471 2.1841 -0.676708
        1.13911 1.5703 0.634984
        -0.64974 1.60856 0.717553
        1.27782 0.821726 0.75202
        0.224185 1.86491 0.58023
        -1.62116 2.15849 0.343189
        -1.30123 0.762629 -0.84267
        0.281127 2.10788 -0.0527882
        -0.389574 0.990405 0.852213
        0.560409 0.440753 0.840702
        -1.46484 1.73072 1.16906
        -0.0243678 1.86447 -0.530144
        0.356117 -0.0440376 0.40222
        1.66344 1.14422 -0.787845
        -0.591094 1.48983 -0.671698
        0.998449 0.945584 0.75989
        0.172836 1.3967 0.539329
        -0.260993 1.02604 1.52019
        0.382711 0.562699 -1.49497
        0.294399 1.45227 -0.579991
        0.51986 0.390641 -0.500632
        0.734343 2.32336 -0.523145
        0.531682 1.20214 -0.00704412
        -0.473434 -0.160367 -0.225835
        0.0405002 1.28101 -0.171613
        -0.858874 0.522524 0.393943
        -0.716943 2.89486 1.01854
        -0.00536855 1.66771 -0.207425
        -0.741107 1.99765 -1.08648
        -0.239843 2.69149 -0.535679
        -1.23634 1.09095 -1.15435
        -0.86825 0.776097 -0.0174742
        -0.16379 1.68358 0.934162
        1.26745 1.82234 0.360683
        -1.01696 1.02749 0.419543
        -0.116275 -0.0831039 -1.11553
        -0.599985 1.35352 1.16001
        0.795053 1.80801 -0.0834833
        0.430649 1.21652 1.18454
        -0.113914 0.560833 0.464403
        0.523197 1.58049 -0.548477
        -0.585984 1.71144 -0.0735667
        0.0789437 1.70251 -0.280304
        0.0968606 1.28968 -0.170498
        0.433986 0.724747 0.510541
        -0.0998337 1.66276 0.659262
        -0.456497 1.34416 -1.10805
        -0.830259 2.03168 -0.79004
        -0.222214 2.20817 0.361039
        -0.554292 1.54695 1.18968
        -0.264905 0.78911 1.17296
        0.109502 0.342773 -0.0139768
        -0.678517 1.87508 -0.441435
        -1.19219 0.565949 -1.3744
        1.29689 0.736409 -1.21127
        0.840989 0.97833 -0.473222
        0.234519 1.21476 -1.21174
        0.638135 -0.0725667 -1.01567
        -1.95905 1.45899 -0.0253918
        -0.428879 1.99329 0.509527
        0.518204 2.47461 -0.790806
        -0.378357 0.654765 -0.728255
        -5.74045e-05 0.643339 0.0115251
        0.301357 0.362345 0.656001
        0.25074 2.44359 0.374254
        0.515524 1.62055 -0.212984
        -0.367911 0.52535 0.480137
        -0.735345 1.1962 0.160097
        0.501163 2.68443 0.322605
        -0.0140237 0.485341 -0.751387
        -0.155434 1.56798 0.598666
        0.132024 1.51675 -0.213623
        -1.03263 0.807891 -0.571177
        -0.566895 0.911597 0.348082
        -0.98101 2.51547 1.01377
        -0.789349 0.887936 0.38075
        -0.111411 1.84808 -0.117664
        0.899584 1.33864 0.880683
        0.645804 0.49044 -1.10701
        0.0629057 1.60331 -1.0698
        1.14185 2.07729 0.826223
        0.0515917 1.59526 0.765776
        0.377243 1.8554 0.65479
        0.751504 1.69635 -1.03735
        0.197555 1.2463 0.255032
        0.525965 1.41878 -0.887481
        0.885598 2.86931 -0.185746
        0.619741 1.50156 0.220896
        0.364283 0.366257 0.0278023
        -1.2143 1.82042 0.157494
        -0.531598 1.77952 -0.0877472
        -0.80794 2.00932 -1.36753
        -0.496887 0.797195 0.0177214
        0.967598 1.58873 -0.752747
        0.300751 1.4921 0.572583
        0.248412 0.674764 -0.7046
        -0.3242 1.95785 0.263711
        -0.0197878 0.138701 0.2367
        -1.18722 1.34994 -0.156574
        0.516791 1.05638 0.96989
        -0.0574244 1.27153 -1.25037
        -0.308891 1.09474 -0.622175
        -1.59341 1.27481 1.21075
        0.0264716 0.239716 -0.115653
        -0.554629 2.14299 -0.313004
        1.04633 1.70821 -0.203071
        -1.13532 0.767501 0.223728
        0.97355 -0.0484831 1.38699
        -1.04161 1.41813 -0.147153
        -1.4021 1.83292 0.111446
        -0.330313 0.971864 -0.838105
        -0.680518 1.21182 0.546973
        -0.884337 0.896501 0.691918
        0.567342 2.01161 -0.359019
        -0.213861 1.43509 -0.784994
        0.691776 1.17419 1.07321
        0.346828 1.14994 -0.792674
        -0.128529 1.27813 -1.37961
        -0.530697 1.60673 -0.0458191
        -0.425198 1.22551 0.619027
        -0.120761 1.08377 -0.345552
        1.36759 1.20994 0.429299
        -0.661355 0.530787 0.0792476
        -0.248877 1.17152 -0.752765
        -0.334896 0.340224 1.6793
        0.0237459 2.44823 0.927194
        0.616655 -1.00473 -0.193702
        -0.103488 -1.14098 -0.851412
        -0.120129 -0.176963 0.394794
        0.647681 -2.29813 -0.524218
        -0.61869 -1.68627 -0.615511
        -0.681209 -0.826474 0.472588
        0.767256 -0.173895 -0.689306
        0.0154926 -1.66371 0.295315
        0.979191 -1.56906 0.399724
        0.0598562 -1.26205 0.93827
        -0.497929 -0.366853 -0.943643
        -0.885203 -1.31806 -0.791931
        -0.457678 -1.93602 -1.38826
        0.19661 -2.16078 0.543858
        0.293696 -1.15515 1.10424
        -1.11423 -0.8137 -0.487679
        0.7408 -1.03256 0.290019
        0.921071 -1.00927 -0.495364
        1.06827 -1.49444 -0.24534
        0.331943 -0.334969 -0.484874
        -0.934574 -1.01316 -0.547992
        -0.367513 -1.66471 -0.971913
        -0.269055 -0.54428 0.0993808
        1.23474 -1.64683 -0.0805588
        1.0593 -1.15968 -0.307633
        1.13861 -1.21977 -1.31236
        -0.115286 -1.12869 0.803628
        0.818856 -1.72511 -0.809008
        1.0784 -1.19299 1.38005
        -0.887016 -0.895191 0.72745
        -0.231405 -1.18646 0.711632
        -0.103134 -0.562992 1.72948
        0.383684 -0.826952 -1.03129
        -0.291038 -1.06463 0.786536
        -2.10071 -1.02748 -0.528596
        0.633613 -0.895562 0.84771
        -0.427905 -1.86001 0.675781
        0.664655 -2.012 0.815638
        -1.38716 -1.91012 0.879254
        0.741073 -0.494979 -0.447442
        0.711153 -1.99689 -0.216531
        -0.201276 -1.63481 -0.932057
        -0.982518 -1.25757 -0.198024
        -0.437559 -1.09731 0.316719
        0.729342 -1.07309 -0.370275
        1.24066 -0.734251 -0.508086
        0.0683935 -1.55753 -1.2145
        -0.69373 -1.1312 -0.652706
        -0.3107 -1.85729 0.914311
        -0.0371942 0.501798 -0.519624
        0.0179129 -1.40393 -0.813168
        -0.309061 -1.48781 -0.509692
        -1.13607 -1.07717 0.53941
        -0.284963 -2.1963 0.751658
        0.504423 -1.42534 0.45491
        -0.865525 -1.38843 -0.29171
        0.511838 -0.114881 0.445659
        -1.32722 -0.653515 1.59042
        -0.168275 -2.60975 -0.966076
        0.657096 -0.924094 -0.635215
        -0.293566 -1.96875 -0.34194
        -1.01219 -2.13528 -1.17645
        -0.345399 -0.747832 1.40863
        1.23209 -1.67497 0.336397
        -0.145197 -1.58022 0.989187
        1.07488 -1.0586 0.524399
        1.47227 -1.5604 1.0291
        -1.01089 -0.980042 0.53044
        0.289539 -1.56868 0.863707
        -0.485793 -0.479103 -1.18957
        -1.58397 -1.31293 -0.501778
        0.621591 -0.645643 1.66707
        -0.170627 -1.35315 -0.036322
        0.740065 -2.00097 -1.38625
        -1.16193 -1.73065 1.05182
        -1.71724 -2.45472 -0.036289
        -0.00207837 -1.06945 0.337108
        0.39267 -1.19438 -0.450719
        -0.186244 -1.67223 -0.793692
        0.540866 -0.345723 -1.99417
        -0.226541 -1.67512 0.0278156
        0.454466 -0.246746 1.15412
        0.942895 -2.6243 -0.527789
        0.0237188 -1.08961 -0.672561
        -0.855294 -1.36413 0.128337
        -0.10091 0.118702 0.646411
        0.370058 -0.393736 -0.803852
        -0.948872 -1.00897 -1.10911
        -1.07507 0.0616003 0.0407509
        -0.112892 -1.84591 -0.076319
        0.908452 -1.40663 -0.671253
        -0.843658 -0.813129 -0.0216395
        0.552813 -1.67515 -1.64734
        -0.920953 -2.74337 -0.54137
        -0.873726 -1.94991 0.45972
        -0.47277 -1.17129 -0.641712
        0.0589523 -1.82874 -0.0465301
        -0.270323 -1.1487 -1.48337
        0.385451 -1.02325 0.650948
        -0.277773 -2.92144 -0.957517
        0.381851 -1.504 0.358438
        0.597773 -2.2295 -0.594552
        -0.562218 -2.93968 0.198948
        -0.413788 -0.803373 0.623492
        -0.394994 -1.79215 0.0885082
        -0.354761 -1.83898 0.370157
        0.454705 -0.880277 0.443642
        0.581148 -0.317403 -0.917672
        0.752168 -1.44347 -0.389163
        0.466669 -1.22234 0.181338
        0.260085 -1.86747 0.346449
        1.13737 -2.24651 -1.13183
        -0.0449572 -1.5195 0.0852372
        -0.323668 -1.10154 -0.281851
        -0.796737 -0.590603 0.287365
        0.209583 -2.92718 1.30243
        0.960027 -1.81123 0.203373
        0.445786 -1.57308 -0.211404
        0.126628 -2.19969 0.619543
        -0.0669586 -1.54346 0.439428
        0.733334 -1.48774 -0.60836
        -1.04627 -1.72759 -0.0973822
        -1.05817 -2.12152 -0.565882
        0.500061 -2.40092 -0.257563
        0.757447 -1.12966 0.0385934
        0.775755 -1.44277 0.354715
        0.739545 -1.75804 1.09608
        -0.0579787 -2.57401 -0.333377
        -0.522359 -0.217856 -0.141479
        -1.51099 -0.791719 -1.05214
        0.938379 -1.7591 -0.280581
        0.309027 -2.05444 0.273636
        1.47617 0.0398369 0.156879
        -0.155188 -0.432956 -0.366044
        1.07905 -0.197329 1.72642
        0.696866 -1.31249 -1.23846
        0.062911 -0.552081 -0.274478
        1.58474 -1.10527 0.998055
        -0.282118 -2.45939 -0.318552
        0.0415068 -0.720583 -0.393928
        0.349847 -0.801488 -0.545729
        1.58954 -0.46339 0.555446
        0.733769 -0.46482 -0.196537
        1.4138 -2.21768 0.438104
        -0.437229 -0.101876 0.449835
        -1.31302 -0.779944 -1.11677
        -1.0972 0.00107472 -1.00943
        -0.259971 -1.9872 0.323537
        0.236821 -2.09421 -0.197095
        0.986105 -0.90441 -0.48145
        1.00438 -1.66968 -0.790186
        0.413165 -0.829728 0.0666292
        -0.152991 -0.856852 -0.21255
        0.270289 -2.13669 -0.991977
        -0.590877 -1.3824 -0.146457
        -0.484212 -1.68564 -0.0253745
        -0.79433 -0.641404 -0.259395
        0.528394 -2.21745 0.789923
        -0.757183 -1.95935 -0.187308
        -0.471193 -0.623224 -0.479963
        -1.65442 -1.95085 -0.761166
        0.926741 -0.0648548 0.737425
        -0.0267422 0.173312 -0.0957255
        -0.840478 -1.05818 0.112058
        -1.20458 0.0265262 0.672173
        -1.12294 -0.0502284 -0.890757
        -0.190218 -1.72751 -0.0838853
        0.552919 -0.602416 -1.58755
        -0.594059 -1.74657 -2.41825
        0.733596 -2.14948 -0.153584
        -0.281639 0.550738 0.936951
        0.629067 -0.0535741 1.50059
        -0.228953 0.303029 1.04901
        0.124328 -2.74845 -0.167241
        0.0692911 -1.20879 -1.34317
        -1.23265 -0.423414 -0.172054
        0.378127 -1.88765 -0.256022
        0.0370063 -2.1738 0.0260548
        0.752495 -1.43303 -0.110066
        -0.200021 -1.15598 -0.386145
        0.077673 -0.497252 1.47795
        0.0603278 -2.79745 0.495597
        1.54318 -1.06392 0.351605
        0.194608 -0.204264 -1.19858
        -0.77019 -1.32642 -0.828685
        0.789675 -1.86074 -0.040502
        0.175472 -1.64036 -0.285701
        -1.83648 -1.42484 0.301506
        -2.41096 0.43054 -0.760733
        0.48709 -0.956904 -1.23976
        0.71663 -1.44839 -1.18009
        -0.314283 0.00701552 0.202566
        -0.889159 -0.820396 -0.129496
        -0.884531 -1.30475 0.134242
        -1.27908 0.827603 0.272468
        0.857262 0.882288 1.99628
        0.688624 -1.79398 0.873479
        -1.49234 1.16966 0.222081
        -0.0502731 0.249963 0.351644
        0.396896 0.835357 -0.566779
        0.467392 0.440159 -0.320928
        1.29686 0.893381 0.337612
        0.36093 1.50646 0.834957
        -0.0604307 0.429164 -0.482644
        1.29157 0.935074 -0.296696
        -0.0224115 0.943922 0.543505
        -0.197637 0.725339 -0.366884
        0.820308 -0.701166 -0.516517
        0.495663 1.7877 -0.172241
        1.86524 0.576031 -0.459589
        0.338148 0.521877 0.259851
        -0.399939 0.591338 1.17614
        -1.67214 0.966646 1.10933
        0.887357 0.519222 0.324835
        -0.0402566 0.14175 -0.34688
        0.895078 -0.28311 0.0402355
        -0.449448 0.716832 0.347305
        -0.707904 1.63669 0.0388183
        -0.560443 0.476021 -0.61551
        -0.0122607 1.36201 0.373069
        0.0985018 -0.0483718 0.319268
        -0.641531 -0.56452 0.670509
        -0.124393 0.0480996 1.03263
        0.469662 0.108748 0.179083
        0.157187 1.00728 -0.640514
        -0.360485 1.8639 0.412059
        0.373061 1.77621 0.918698
        -0.185873 1.09708 0.907127
        -0.254611 2.33734 0.347182
        0.153496 0.709576 0.399868
        0.67209 2.25686 -0.139717
        0.298544 0.173664 0.462486
        0.074478 0.508524 -0.349499
        -0.561542 2.6274 0.169552
        0.371214 1.55957 1.8683
        -1.11655 0.320459 -0.106055
        -0.968873 1.59962 -1.44846
        1.15664 0.561331 0.548767
        -0.220673 1.92778 0.134229
        -1.47541 0.75067 1.24147
        -0.400631 1.21225 0.676337
        -0.58861 2.14333 -0.354131
        0.429625 0.600053 -0.123516
        -0.040648 1.72239 0.643406
        -0.767485 0.513066 -0.690616
        0.588334 0.910146 0.0179934
        -1.07207 1.33665 0.00643644
        -0.757718 0.60716 -0.137496
        -0.565201 1.66321 -0.0737664
        1.2278 0.499237 -0.0122757
        -0.0479173 1.14591 -0.317515
        -0.208955 1.68335 0.473311
        0.849104 1.69871 -1.5194
        -1.26066 2.45001 -0.236943
        0.250261 0.453193 1.11801
        0.251082 1.22616 0.189976
        -0.0153307 1.62313 0.291539
        0.395614 1.52064 0.0772561
        -0.865023 1.97551 1.18246
        -1.88022 1.53724 0.513754
        -0.862625 2.07921 -0.334617
        0.221715 0.105844 -0.697721
        -0.380679 1.96065 0.880024
        -0.944702 1.24415 0.779301
        -1.13398 1.66802 0.228864
        -0.228765 1.52563 -0.682901
        -0.620984 1.28338 -0.266846
        1.58715 2.85223 0.0259039
        -0.395193 0.679006 0.375619
        -1.16328 1.87865 -0.929702
        2.31521 2.79603 -0.156331
        0.223567 0.55881 -0.0937581
        -0.958953 0.368175 0.117623
        1.0403 2.22439 0.248924
        0.00876594 0.72326 0.174752
        1.48841 2.24498 -0.212504
        -1.03669 1.4132 -1.40464
        -1.20438 1.07949 0.239002
        0.663604 2.02918 -0.901717
        -0.440046 2.1462 -0.681183
        -0.116552 2.41932 0.342384
        0.123196 0.469696 0.671134
        -1.49692 2.09925 -0.545517
        1.00025 1.89937 -0.0448884
        0.648522 1.85789 0.299098
        0.332486 1.17444 -0.241128
        -0.244895 1.53273 0.0104491
        1.28592 0.958654 -1.24016
        -0.842595 1.08042 -1.51004
        -1.15512 2.33207 -0.541642
        -0.543823 -0.0649942 -0.750024
        -0.173256 1.04241 -0.955798
        0.52244 1.41265 -0.127721
        -0.930922 1.68513 -1.26565
        -0.564691 1.88123 0.188783
        0.271404 0.740827 -1.24153
        0.768245 1.34754 -1.78972
        -0.220033 1.35742 0.679221
        0.0625192 0.636013 0.559925
        -0.76886 1.88762 -1.14433
        -0.132977 1.5141 -0.586983
        -0.169823 1.02768 -0.345685
        0.098791 2.17872 0.923098
        -1.35112 0.915257 -0.63347
        0.445412 1.004 -0.655566
        0.00237892 2.09155 0.168418
        -0.132804 1.72465 -0.509648
        0.772868 0.725849 1.13525
        -0.386208 1.21145 -0.766975
        0.335903 3.79964 -0.420047
        0.203603 1.24255 0.585361
        0.144393 0.107231 -0.310116
        -0.540899 0.981291 -0.493879
        0.000719057 1.66027 0.800852
        -1.04186 -0.0480127 0.174536
        0.256458 1.80733 -0.0511991
        -0.238927 1.45647 -0.256544
        -0.12855 1.29168 0.368139
        -0.298378 2.42283 -0.933834
        -0.88188 0.072132 -0.535491
        0.276296 1.49521 -1.05944
        -0.44486 1.30949 0.715016
        0.685353 1.60171 -1.29441
        -1.39488 0.692516 -0.585788
        -0.0995649 1.90337 1.03605
        -0.523353 0.663352 0.643066
        0.511601 0.611279 0.315292
        -0.857425 1.64356 1.5178
        -0.161028 1.04201 -0.496277
        -0.286324 1.32476 1.21066
        0.961712 0.993854 0.197588
        -0.110933 1.8363 0.392477
        0.677903 0.692282 -0.50778
        0.902139 1.69324 -0.451407
        -0.447951 1.69662 0.0942539
        0.0246032 1.20221 -0.97442
        0.0215897 1.50511 -0.587437
        0.109758 0.0812265 0.0274281
        0.893382 2.5124 -0.831954
        -0.78916 1.32786 -0.330603
        -0.217102 0.872212 -0.305405
        -0.293478 0.30912 -0.337323
        0.21046 0.461412 0.763986
        0.256404 0.580676 0.738191
        -0.0485598 2.20521 -0.0135816
        -0.426868 1.32719 0.969583
        -0.932287 3.13001 0.282602
        -0.901724 1.65095 0.591505
        -0.67117 1.92433 -0.194861
        1.64067 0.0906612 0.1608
        -1.34286 0.458631 -0.268867
        0.0905783 1.88207 0.579551
        -1.24229 0.980203 1.03266
        -0.4913 1.22023 -0.750942
        -0.614607 2.37061 1.94608
        0.0242725 2.23519 -0.39943
        -0.559268 2.8763 0.984184
        0.18232 1.1644 1.15743
        -0.554619 0.686935 -0.653981
        0.167471 1.18037 0.483968
        -1.28699 0.761698 1.6331
        0.226109 1.66323 0.144126
        -0.0750999 1.16449 0.288726
        0.331512 0.855015 -1.29671
        -0.109749 -1.68722 0.77705
        -1.37876 -0.77251 -0.643435
        -0.372272 -0.924937 0.0637697
        0.735545 -2.19632 0.653165
        -0.106422 -2.32067 0.473829
        -0.372968 -2.07441 0.257982
        -0.658902 -0.903743 -0.167522
        0.827076 -0.904486 -0.82193
        0.841493 -1.47565 -0.0781441
        -0.0973623 -0.710422 1.25916
        0.337018 -2.21011 0.56895
        0.358047 -1.28735 0.061845
        -0.119073 -0.851782 0.01343
        -0.745283 -0.184027 0.948129
        -1.2628 -0.441418 -0.462075
        -0.631757 -0.534413 -0.623852
        0.899472 -2.0715 0.306761
        0.278368 -0.573661 -0.480274
        -0.0871109 -1.7503 -1.03854
        -0.22363 -0.557475 0.0945935
        0.172421 -1.29649 -1.46706
        -0.83773 -1.44992 -0.219014
        -0.0439293 -1.75385 1.44275
        -0.272823 -0.939742 0.828609
        0.168046 -2.01336 0.125207
        0.368846 -2.38844 -0.0226758
        -0.178489 -1.2137 -0.401864
        0.0711248 -0.956781 0.273006
        0.182582 -0.588489 -0.966207
        0.487836 -1.50719 0.0667802
        0.338134 -2.37787 0.14073
        0.155628 -1.01634 -0.0109049
        1.19895 -0.64264 0.697696
        0.33507 -0.694582 -0.301333
        -0.495522 -1.36211 -0.346624
        0.566907 -1.22829 -0.108809
        0.404617 -1.08682 0.177578
        -0.361429 -1.04864 0.220525
        1.61487 -1.62549 -0.0603365
        0.42011 -2.22622 -1.46077
        0.453735 -1.5877 0.693465
        -0.251542 -1.01157 0.476355
        -0.132413 -1.30919 -0.268949
        0.235578 -0.437428 -1.06546
        1.66734 -1.32776 0.675011
        0.254616 -0.893064 -0.507218
        0.230687 -1.5023 0.595113
        0.371848 -1.64058 0.120774
        0.0983767 -2.40892 -0.401339
        0.0626746 -1.16455 -0.9743
        0.556818 -2.53941 -0.0283759
        -0.320048 -0.0367942 0.0163505
        -0.146026 -1.72226 0.221905
        -1.12553 0.00629494 -0.590296
        -0.171492 -1.1872 0.338211
        -0.58064 -1.15142 0.0909056
        -1.23056 -1.61809 -0.672642
        -0.960597 -0.367494 -0.633568
        0.334403 -1.40953 -0.17452
        0.643165 -0.762898 0.558332
        -0.547086 -1.01605 0.647919
        -0.515425 -2.17654 0.387735
        1.26751 -0.435106 -0.827973
        -0.958493 -0.613366 -0.0937588
        -0.71939 -0.822898 -0.386911
        0.697481 -2.24525 -0.16967
        -0.286951 -0.894734 0.171963
        -0.347151 -1.56617 0.131302
        1.39792 -1.40561 0.249709
        0.535344 -2.15966 -0.707457
        -1.0671 -0.926306 -1.21002
        0.667621 -1.62936 -0.400743
        0.0257454 -1.35535 0.286134
        -0.30607 -2.24628 1.32561
        1.42695 0.105326 -0.103499
        -0.200229 -1.1924 -0.591201
        -0.767314 -1.34841 1.78783
        -0.218298 -1.80501 0.167789
        -1.17164 -1.55047 0.354311
        -1.23956 -1.5603 -0.831842
        0.442104 -0.447455 -0.276265
        -0.187089 -1.23905 -1.35798
        0.0954349 -2.91504 -0.698756
        -0.690869 -1.99246 0.330308
        0.0458238 -0.900117 -0.00963716
        0.0241429 -1.09578 -0.563798
        0.683962 -1.74697 1.30644
        -1.29328 0.165941 0.176826
        -0.26967 -0.742204 1.23993
        0.767754 -0.514247 0.689197
        0.275338 -1.98727 0.248875
        -0.500385 -1.45977 0.219733
        0.0471371 -1.62429 0.320376
        0.664809 -1.81388 0.368795
        -1.58732 -2.85249 -0.025859
        -0.0114195 -1.0472 -0.693688
        0.668619 -0.732869 -0.369134