<?xml version="1.0" encoding="UTF-8" standalone="no" ?>
<VTKFile byte_order="LittleEndian" type="UnstructuredGrid" version="0.1">
  <UnstructuredGrid>
    <Piece NumberOfCells="0" NumberOfPoints="1764">
      <PointData>
        <DataArray Name="velocities" NumberOfComponents="3" format="ascii" type="Float32">
        0.863368 -0.249672 0.156526
        1.17612 -1.22839 0.873669
        -0.698825 -0.370246 -0.577181
        0.208883 -2.93513 -0.839274
        -0.0139225 -3.2127 0.385841
        -0.44922 -1.83295 -0.274653
        -0.576356 -1.56531 -0.463424
        0.890774 -1.60207 -0.314327
        -0.53115 -1.68485 0.51025
        0.517156 -1.77704 -0.541387
        0.006195 -1.17572 0.528815
        0.266637 -1.73861 0.997653
        -0.76362 -0.935594 -1.02363
        -0.0761308 -3.25809 -0.0132105
        -1.06427 -0.919049 0.550192
        -0.390849 -1.66589 0.160829
        0.540955 -1.62978 -0.163328
        -0.0418199 -0.453678 0.174284
        -0.14787 -0.526991 -0.837635
        0.0451767 -1.8972 -0.00375432
        0.617906 -0.703865 -0.748255
        0.832766 -1.15511 -1.81349
        -0.937505 -0.346145 0.942451
        -0.298597 -2.70218 1.57012
        -0.347253 -2.06744 -0.439199
        -1.09046 -0.95695 0.272201
        0.794335 -0.942836 -0.401353
        -0.574533 -2.09205 -0.573716
        0.472466 -1.17839 -0.0365178
        0.707062 -2.00105 0.117004
        0.0164764 -1.76084 -0.0537317
        0.0441174 -1.55423 0.535699
        -0.763489 -0.987468 0.452234
        -0.409553 -2.47557 0.596535
        0.119926 -1.29643 0.582761
        -0.355329 -1.95876 0.710286
        -0.610457 -1.16802 0.281153
        -0.751431 -0.826422 0.609777
        -0.000517922 -1.73481 -0.949185
        -0.464194 -1.03548 0.442909
        0.246861 -2.06778 -0.443672
        0.276266 -1.42514 0.540196
        0.407276 -1.50668 0.0912144
        0.366984 -1.30994 -1.12359
        -0.386235 -1.0672 -0.503614
        -0.56785 -2.25111 0.577796
        0.178285 -1.77013 -0.333575
        -1.91662 -1.2215 2.04
        0.230332 -1.43875 1.68431
        -0.418405 -1.80158 -1.29835
        -0.646938 -2.27172 0.0313024
        -0.186999 -2.79489 -0.791818
        0.829594 -0.451532 -0.177704
        -0.421228 -0.451655 1.29926
        0.315609 -2.26834 1.12979
        -0.969705 -1.63831 -0.0137831
        0.029603 -0.618651 -1.45051
        -0.0768127 -1.58884 -0.766512
        -0.475107 -1.35885 -0.296529
        0.0311484 -2.28673 -1.07234
        -0.788675 -1.52988 -0.13618
        -0.124339 -2.687 0.395033
        -0.359767 -0.928259 -0.703643
        0.207701 -0.873552 -1.77649
        -0.439974 -1.35586 0.553445
        0.0163769 -2.35575 1.30665
        0.567285 -0.181931 -0.840373
        0.653367 -2.38196 0.454259
        -0.0281747 -0.899553 0.549435
        0.785067 -1.13186 -0.585804
        1.1813 -2.06738 0.567677
        -0.883693 -0.863255 -0.130963
        0.280004 -1.35295 -0.277523
        0.154998 -0.711339 0.0152553
        0.634422 -0.908712 0.926173
        0.0997627 -1.46152 0.603118
        -0.0869897 -1.17172 0.189038
        -0.542502 -1.47232 0.830777
        0.0169783 -1.5116 0.0142473
        0.069703 -0.413353 -0.0671922
        -0.686234 -1.42228 0.127688
        -0.147425 -1.13731 -0.399918
        -0.808522 -1.30618 -0.754969
        -0.90252 -0.777362 0.390487
        1.07424 -0.628394 0.119395
        0.836747 -2.24458 0.408585
        -1.42453 -1.78735 -1.06255
        0.241978 0.00690594 0.59887
        -0.501567 -2.53966 -0.444245
        1.24423 -1.83153 0.295027
        0.506511 -2.59784 0.794442
        0.3355 -2.32086 1.4763
        0.0255892 -1.63135 -0.39772
        1.38403 -2.09251 -0.475233
        -0.445444 -1.73377 -0.238579
        0.478394 -1.23099 0.158909
        -0.283208 -0.828146 0.42311
        -0.237446 -1.07085 -1.23905
        -1.11073 -0.308051 0.0410854
        0.210953 -1.18112 -0.867179
        0.868783 -0.682023 0.0324155
        0.311125 -3.2437 -1.15192
        -0.0225034 -1.49178 0.41065
        0.680349 -0.605887 -0.317116
        1.29378 -1.56778 0.367279
        0.475616 -1.42542 -0.253437
        -1.18159 -1.71386 0.118929
        -0.814281 -1.66598 -0.654192
        0.421141 -1.76499 -0.0292019
        -0.42946 -3.4007 -1.10351
        -0.115008 -2.61561 0.804209
        -1.60661 -0.541524 0.221084
        -1.20029 -0.292144 0.633391
        -1.06957 -1.71167 -0.148746
        -0.0153203 -1.32345 -0.124524
        -0.669187 -0.783258 0.885336
        -0.640937 -1.0145 0.991783
        1.25707 -0.381599 -0.955098
        1.0621 -1.36304 1.20171
        0.0822192 -1.70405 1.52388
        0.981008 -0.721076 -0.562423
        -0.128865 -2.18838 -0.217322
        0.00873848 -2.53154 -0.442693
        -0.0459589 -2.0266 -0.0234322
        0.527323 -1.46447 -1.0299
        -0.00884306 -0.0542571 -0.452318
        0.41473 -2.02503 0.250786
        -0.243966 -1.40358 -0.0718468
        -0.633558 -0.538863 -0.523623
        0.0574037 -0.921498 0.513102
        0.0687455 -0.931243 -0.774213
        -0.289922 -2.84374 0.593191
        0.328625 -2.18889 -0.160537
        -0.45479 -0.521582 -1.36303
        1.19846 -0.463264 1.0888
        -0.15169 -0.110414 -0.384696
        -0.7881 -1.89816 -0.526194
        -0.515434 -0.896621 0.388572
        0.98575 -3.63192 0.762174
        0.6628 -0.714434 0.331655
        -0.43663 -2.12439 -0.262208
        -0.466774 -1.898 -0.376206
        -0.73991 -0.953983 -0.996127
        -0.997408 -1.50525 0.873365
        -0.796833 -1.19004 0.68408
        -0.202334 -3.38724 0.427963
        -1.35105 0.477887 1.49817
        -1.23152 -1.66178 0.912972
        1.23352 -1.64266 -0.404967
        1.23409 -3.7001 -1.1642
        0.980341 -2.5754 0.110214
        1.05532 -1.64179 1.10174
        0.753613 -1.19814 0.552426
        0.223433 -2.41724 0.808492
        0.17381 0.296245 -0.0455641
        -0.394117 -0.604776 0.0183694
        0.777623 -0.986671 0.660508
        -0.0539707 -1.18105 0.326454
        1.87789 -1.76735 1.56537
        1.60911 -0.986648 -1.2194
        -1.95168 0.14754 -0.288175
        0.601818 -3.04291 -0.129835
        -1.84972 -3.07543 -0.136322
        0.0179861 -1.51859 -0.354324
        1.28115 -1.46673 1.50928
        -0.132589 -1.2559 0.577617
        -1.17241 0.330316 0.0392723
        0.235592 -0.275277 0.913106
        -1.02849 -1.01296 0.401559
        0.0589921 -0.359743 0.840412
        0.204897 -1.15769 -1.02732
        -1.41146 -1.93031 -0.830486
        -0.0608273 -1.08674 1.47091
        0.244241 -1.36464 -0.826952
        0.858914 -1.4769 -0.0886154
        0.0154262 0.297531 -1.81441
        -0.485695 -0.98371 0.742759
        -0.979896 -1.02948 0.7962
        0.994005 -1.15607 1.51478
        -0.766263 -1.25483 -0.862395
        0.896944 -1.02954 0.126431
        0.00913903 -1.7929 0.581753
        0.770462 0.0757078 -0.221473
        1.51824 -2.26342 0.63842
        1.33983 -0.348286 -0.125269
        -0.340595 -1.25218 0.825306
        -0.953295 -0.791658 -0.216804
        -1.4989 0.229134 -1.38981
        -1.72272 0.29894 -0.931356
        -0.6654 -0.4862 1.57313
        -0.191505 0.458009 1.00591
        -0.127659 -0.352145 -0.662341
        0.0586391 0.255013 -0.0228248
        -0.387763 0.348269 -0.125839
        -1.35376 -0.448983 0.845458
        -0.492643 0.698135 -1.37837
        -1.01086 -1.1639 -0.733769
        -1.19052 0.670965 1.33943
        -1.58726 0.848856 0.133574
        0.532796 0.303153 0.301801
        -0.443477 0.00907584 -0.362834
        0.269135 1.5938 0.036765
        0.299393 1.18334 -0.97147
        0.317405 1.35115 -1.37345
        -0.444615 -0.0523465 2.0293
        0.344892 1.08713 -1.27407
        -1.35806 1.69217 0.319356
        -0.246738 0.383137 -0.233293
        -0.790949 0.176377 -0.130939
        0.0136471 0.0169251 0.325326
        1.01078 0.793865 0.961523
        -0.746715 0.438005 2.12387
        1.06913 1.44411 -0.202587
        0.612382 1.10941 0.579667
        0.569813 0.0562704 0.689914
        -0.157501 0.607488 0.0193904
        0.379708 0.853121 0.491091
        -1.72202 2.09609 0.111243
        0.918211 0.453771 -0.104184
        -0.619219 -0.392644 -1.26783
        -0.0568285 -0.448264 0.0389113
        1.00346 0.969176 -0.0422002
        0.223529 -0.447453 -0.517755
        -0.509962 0.0638002 0.197286
        0.498329 1.36708 -0.793743
        -0.748371 1.24827 0.834106
        1.09395 1.75574 -0.294491
        0.756398 2.30244 1.27476
        -0.335072 0.70726 0.688863
        0.980773 1.25785 0.319013
        0.478355 1.60321 0.605763
        1.34995 1.09637 -1.0876
        0.384085 -0.0598582 -0.387798
        -1.57408 -0.371623 1.10332
        0.2319 -0.255534 -0.364322
        0.465946 0.408942 1.51829
        0.174921 -0.49493 1.25772
        1.60761 1.33102 1.2124
        0.402923 1.57615 -0.668955
        -0.35002 0.403828 -0.829243
        1.27043 0.761356 -0.623549
        -0.450524 0.816004 0.553273
        -1.12268 1.18659 -0.414552
        -2.16344 1.14892 -0.915191
        -0.224999 2.78749 -0.853235
        0.263868 0.516557 -1.42825
        -0.814668 1.21659 -0.253836
        -1.23286 1.46702 0.33658
        0.193447 0.620347 0.0652587
        -0.290903 1.44971 -1.14895
        -1.55744 0.0343325 -0.601565
        -0.686452 0.686419 0.213739
        -0.166 0.16702 1.13535
        -0.287313 2.46313 -0.601449
        0.592088 0.32227 0.0565641
        -0.289502 0.399944 -0.227176
        -0.177257 1.0102 -1.47474
        0.59918 0.374456 -0.155858
        -0.114807 1.73503 -0.312071
        -1.48114 0.911747 0.784312
        0.399608 0.285458 0.100823
        0.81498 1.81085 -0.964
        -0.120709 0.745705 0.190704
        0.817844 1.77934 -0.708756
        0.424808 2.08417 0.243816
        -0.617511 1.94306 -0.502435
        1.35577 1.97485 -1.28705
        0.997022 1.42726 -0.341807
        0.081087 1.23095 -0.716805
        -0.901343 0.413115 -0.742037
        -0.143522 1.48005 -1.16218
        -0.215728 1.98271 0.124348
        0.0437025 2.38822 1.25682
        -0.718699 1.67481 0.511125
        -0.230002 0.974483 -1.12049
        -0.0448651 1.40922 -1.1256
        0.295072 0.962435 -0.731436
        -0.0339164 0.521272 0.261279
        -0.30998 -0.330173 -1.11198
        0.484406 1.4236 -0.351386
        0.93523 1.71469 0.00271838
        -1.52827 2.33178 0.594451
        -0.499041 -0.645979 -0.0215496
        -0.0929482 1.61843 0.284316
        0.504381 1.80421 1.48037
        -0.0741573 1.87075 -0.761263
        -0.306733 0.214744 -0.23655
        -0.290717 1.01269 1.07186
        -0.00450778 1.12568 0.526514
        -0.00246665 1.67671 0.36975
        -0.208681 0.630389 0.209565
        -1.34173 2.56722 -0.50695
        0.404526 2.31871 -0.121299
        -0.40391 0.959421 -0.759181
        0.34157 2.11277 -0.292729
        -0.14445 1.18797 -0.398728
        0.0752181 1.26661 0.933281
        -1.12967 1.45065 0.917886
        -0.746333 0.765269 -1.01723
        0.0333183 2.03581 0.443766
        1.60385 1.73357 -0.904835
        -1.06155 0.424421 -0.563225
        0.997308 0.972595 0.564946
        -1.25542 0.692971 0.913501
        -0.262694 0.698996 0.573697
        0.681437 1.39192 0.215532
        0.438814 1.1891 0.251679
        -0.460892 1.16154 0.39771
        0.204799 2.25402 0.319667
        0.0285664 0.878137 -0.177009
        -0.683916 2.02574 0.617839
        0.683441 1.60963 0.34398
        0.109068 2.15059 0.989334
        -0.198109 0.306273 1.28085
        -0.126794 0.937443 0.174669
        -0.338407 1.08231 -0.0849229
        -1.24408 2.28403 -0.989442
        -0.390839 0.54833 -1.01226
        -1.07028 1.54657 -0.668117
        -0.284641 1.2283 -0.21783
        1.02781 1.1778 -0.388513
        -0.208709 1.59014 -0.344692
        -0.134259 0.987137 -1.37286
        0.525289 2.28863 -0.478171
        -0.49275 2.36059 -1.54702
        -0.852388 3.17879 -0.283786
        -1.08547 2.53621 0.214929
        -0.222005 2.3874 -0.258587
        -0.0488738 1.57447 -0.327134
        1.08256 0.988932 -1.75634
        0.401146 1.60116 -0.894808
        -0.135449 1.56622 0.13254
        0.200724 3.27285 -0.990492
        -0.189987 0.994172 0.615239
        0.657243 2.02935 0.557086
        -0.702963 1.09984 0.438973
        -0.956084 0.857069 -1.14046
        1.64585 1.17385 -0.482956
        -0.169266 2.46458 0.798957
        -0.229209 1.82376 -0.388917
        0.764261 1.45788 1.04275
        0.654064 1.0283 0.73218
        0.493889 2.83473 0.0841263
        -0.505395 2.13758 0.543683
        -0.102028 -0.214663 1.30779
        -0.501876 2.14262 -1.20283
        -0.179651 1.37413 1.00233
        0.324095 1.43784 -0.435518
        1.62258 1.7173 0.378691
        -0.161104 1.14464 0.52595
        -0.405208 1.87755 0.532122
        -0.286154 0.0276923 -0.254075
        0.153277 1.2713 -0.314786
        1.10059 0.949737 0.633217
        0.0130405 1.43965 -0.0991971
        -0.254562 0.939174 -0.36358
        0.106868 1.43102 0.252344
        -0.225247 1.57861 -0.475724
        0.537582 1.02592 -0.338736
        -0.044183 1.08471 -0.542675
        0.212416 1.36828 0.897393
        0.0963583 1.15486 -0.30323
        0.534621 0.528106 -1.19626
        1.35003 2.22681 0.699439
        0.119941 1.39962 -0.860505
        -1.9724 1.56427 -0.517717
        0.0933702 1.60201 -0.362374
        0.602241 0.0975782 0.396963
        0.266783 0.784831 -0.258457
        0.252607 0.509707 0.253471
        0.826577 0.859514 0.446388
        0.0650692 1.12479 0.75354
        -0.708809 1.86073 1.11338
        0.456139 1.0979 -0.951693
        -0.219171 0.367147 0.974376
        0.172751 2.11978 0.558346
        -0.243754 0.897679 -0.240501
        0.335384 2.48807 -0.550964
        0.41563 1.37104 1.15404
        -0.969622 1.32239 0.336329
        0.884171 1.95776 1.46589
        -0.370885 0.847885 -0.347965
        -0.912821 1.78541 0.409473
        -0.164437 1.89927 -0.738668
        -0.249569 1.29385 0.765351
        -0.720415 2.25582 -0.25824
        0.305664 1.29852 -1.29441
        0.332818 1.6909 0.117798
        0.438309 2.59725 0.064996
        -0.065175 0.400765 -0.0200126
        -0.394307 0.624801 -0.428665
        0.255955 0.969185 0.117319
        -0.746724 2.11671 0.50408
        0.0724964 2.29436 0.521463
        -0.0650318 -0.602971 0.308253
        0.767522 -1.39733 -0.171612
        1.53235 -0.899173 -0.602058
        -0.612414 -1.20088 -0.306815
        -0.736504 -1.57181 -0.0647822
        -0.85366 -0.681867 -0.645306
        -0.641541 -1.34554 -0.965054
        -0.678752 -1.95156 0.870936
        0.938459 -2.36631 0.544419
        -0.500821 -1.98836 0.102867
        -0.655193 -1.0551 -0.337568
        1.36158 -1.02838 0.511669
        0.161098 -0.210475 -0.37276
        -0.260442 -1.86774 -0.524179
        0.761581 -1.52743 0.243581
        0.711971 -2.77288 -0.807846
        -0.236607 -1.57061 -0.630107
        0.215703 -2.0359 0.665608
        -0.272903 -0.541797 0.322288
        -0.192865 -1.47433 -0.125527
        -0.169037 -2.23955 0.575261
        -1.24512 -1.04761 0.377619
        -0.332656 -0.196459 0.0271456
        0.205527 -1.58873 0.466842
        0.671247 -1.34803 0.0496544
        -0.467111 -0.276456 -0.0248272
        0.090538 -1.50773 0.368452
        -0.270025 -0.301536 -0.161957
        -0.0199748 -2.7526 0.274181
        -0.245676 -2.92289 -1.18291
        -0.909796 -1.49843 -0.0856279
        0.81361 -1.8482 0.672071
        -0.0494544 -0.673778 0.840617
        0.166911 -0.654712 -0.858479
        -0.673162 -1.87039 1.86701
        -0.0650556 -0.197192 -1.16134
        1.61349 -1.73464 -0.489418
        0.294693 -0.991197 -0.658806
        1.01615 -1.8604 1.29666
        1.36996 -1.50742 0.829583
        0.548706 -0.906867 0.0179691
        -0.667597 -1.80228 -0.368493
        -0.820409 -1.66433 -0.703134
        0.551582 -0.657791 -0.425248
        -0.448384 -1.22072 -0.0645769
        0.257266 -1.22336 -0.0617337
        -0.13784 -0.864338 0.502157
        -0.444618 -0.0431385 0.302009
        -0.241723 0.275132 -0.59816
        -0.0602453 -1.065 -0.778744
        0.381007 -1.11698 0.316535
        -0.770944 -1.19436 -0.88859
        -0.0356129 -0.891978 -1.54883
        -0.158146 -1.35213 0.418347
        -0.0581767 -0.567764 0.298943
        -0.0296669 -1.93787 0.502122
        0.124996 -0.0586881 0.0635441
        -0.36143 -1.5538 -0.765782
        -0.038434 -0.646785 -0.372267
        -0.624305 -1.59221 -0.478685
        0.911433 -1.60418 0.298625
        0.581257 -0.555059 0.35098
        -0.0116771 -2.27562 0.929915
        -0.0304272 -1.36916 -0.375022
        1.73062 -1.30902 0.0777395
        -0.583514 -1.85002 -0.326507
        0.737358 -0.677727 -0.600731
        0.102304 -1.40853 -0.181597
        -1.5298 -2.28682 0.627301
        0.0644103 -1.20136 1.34225
        -0.410016 -0.717572 0.658598
        0.256295 -0.681683 -0.0797954
        -0.552468 -1.17622 0.191817
        -0.502953 -1.79008 0.681653
        -0.827713 -2.42133 0.767769
        -1.51525 -1.23137 -1.02632
        -0.182362 -1.09278 1.23429
        0.772721 -0.845952 -0.668877
        -0.625018 -1.094 -0.164523
        -0.143173 -1.01855 -0.519309
        0.251897 -1.34605 -0.89597
        0.676371 -1.26197 0.936915
        -0.0434888 -1.01894 0.188456
        0.325722 -0.283936 0.155429
        0.668464 -1.77167 0.254137
        -0.0150939 -0.409849 -1.39442
        0.829888 -1.19566 -1.07405
        0.962389 -1.34982 -1.35709
        -0.151387 -2.26329 -0.18299
        0.18173 -0.0809418 0.280619
        -0.919796 -0.752287 0.171206
        0.485232 -2.13972 -0.351401
        0.108826 -0.972286 0.268803
        0.171662 -1.6609 0.988063
        -0.972452 -1.14836 -0.783498
        -0.947378 -1.06123 0.111417
        -0.599022 -1.73018 -0.614826
        0.474999 -1.53165 -1.12019
        -0.124407 -0.894827 -0.71739
        -1.45594 -0.922298 0.732424
        2.23409 -1.62626 -0.0953325
        1.20825 -0.112721 -0.507864
        0.624459 -0.572102 0.44486
        -0.25447 -1.07196 0.0226554
        0.374076 -1.64738 -0.36144
        0.459076 -1.80114 0.444546
        0.456023 -1.47546 0.259362
        -1.06744 -0.030276 -1.04492
        0.330706 -2.02718 1.27581
        0.675982 -2.50311 -0.735518
        -0.640904 -1.31007 -0.306612
        -0.732038 -0.353562 -0.0939717
        0.494206 -1.5598 -1.00576
        -1.52142 -1.48057 -0.515611
        0.6803 -0.124581 -0.667866
        -0.204292 -0.767319 -0.00696628
        0.793912 -0.861054 -0.747631
        -0.270831 -1.03798 -0.0834023
        -0.668342 0.394293 -1.15933
        -0.540948 -0.834462 -1.07263
        -0.0632925 -1.25782 -0.24649
        -0.163631 -1.38741 0.116613
        -0.183449 -0.953322 -0.523313
        0.279653 -1.46759 -0.112983
        -1.36437 -1.66821 -0.155806
        0.0208185 -1.5639 -0.166879
        0.260668 -2.35447 0.1391
        -0.4668 -1.16871 0.0076646
        1.0993 -1.06731 0.248439
        -0.314012 -2.23698 -0.282037
        0.849217 -1.66165 0.301302
        0.118068 -1.13213 0.756023
        -0.684548 0.0172826 -0.0978592
        0.101524 -0.21333 1.63144
        1.15384 -0.477832 -1.01176
        -0.296731 -1.38523 0.484495
        0.852746 -2.24174 -0.763508
        0.811424 -2.57821 -0.73296
        0.283614 -2.41471 -0.435263
        0.558485 -0.694234 0.0382863
        0.279284 -2.02709 1.14216
        -0.602517 -1.64794 -0.57995
        -0.700054 -2.37668 0.484655
        -0.349336 -0.876024 -0.287302
        -0.348998 -0.570047 0.0135132
        1.49993 -0.469353 0.645495
        1.00119 -0.513673 -0.837997
        -1.65385 -0.489998 -0.249564
        -0.0276646 -0.260773 -0.476638
        0.367693 -1.22737 -0.784697
        -0.780021 -1.09889 -2.05096
        -0.36412 -0.623683 0.54316
        0.0937736 -1.01271 -0.151907
        0.166648 -0.213822 0.532921
        0.38508 -1.74031 -1.01652
        -0.0809937 -1.78181 0.508673
        1.15346 -0.402627 -1.42167
        1.13737 -0.164513 0.0303009
        -0.764293 -0.762173 -1.02485
        0.582744 0.072827 0.316539
        0.445454 -1.11601 -0.264545
        -1.09399 -0.335295 0.243666
        -0.473851 -1.00966 0.112433
        -0.443995 -0.84583 0.0481887
        0.521956 -2.35107 -0.540743
        1.37839 -1.14375 -0.940897
        0.605315 -0.446277 -0.986127
        -0.309838 -1.44637 -0.302622
        1.32399 0.322266 0.67827
        0.477284 -1.46496 -0.0346206
        0.104275 -1.74461 -0.275472
        0.934824 -1.5858 -0.113643
        -0.105915 -0.723671 0.562538
        -1.36653 -0.883092 0.2857
        -0.449823 -0.656132 1.08058
        0.364557 -0.0301191 0.562007
        1.46753 -0.67247 0.524449
        0.829753 0.932725 0.477183
        -0.79852 0.428279 -1.62763
        0.439467 0.0271729 -0.0307069
        -1.06084 0.305771 -0.235692
        1.16752 0.341131 -0.478051
        0.618665 -1.42064 0.437954
        -0.667401 -1.12125 0.508037
        -0.333128 0.348728 0.982828
        0.230442 -0.179828 0.205905
        -0.327254 0.693742 0.209898
        -0.383589 -0.43102 0.755478
        0.586986 0.650428 -0.482635
        -0.217268 -0.92846 0.162309
        -0.645617 0.242276 -0.571101
        0.652701 0.29019 1.33319
        0.213532 0.69599 0.64449
        0.423443 0.414499 -0.871314
        0.807132 0.521067 1.75442
        0.0420755 -0.129117 -0.0103398
        0.194856 1.22116 0.955808
        -0.173801 1.11724 1.27034
        0.272808 -1.39643 1.1605
        0.463006 -0.0917089 0.648031
        -0.720577 2.1192 0.810907
        -0.498369 1.30742 0.808401
        -0.0124788 1.68133 -1.1855
        0.00958312 1.05202 1.18562
        1.04646 -0.107296 0.351063
        -1.79857 2.19952 0.132673
        1.18015 1.39895 0.256908
        0.488351 2.23104 -1.06833
        0.0545869 1.79814 -0.401354
        0.248614 1.26199 -1.85133
        -1.46273 0.514776 -0.598971
        -0.647626 1.95545 -0.492485
        1.11281 0.538728 -1.31697
        -0.589649 1.05258 -0.386919
        0.174546 1.03894 0.313191
        -0.702071 1.33574 0.160717
        -0.188 1.41927 -0.356744
        -0.599553 2.8011 -0.756321
        -0.446739 0.393289 -0.305761
        0.975352 1.83364 -1.18698
        0.427725 2.0263 1.64979
        -0.882444 1.3872 0.211353
        -0.161046 1.94202 -0.538245
        -0.417549 1.10332 -0.343855
        -1.03867 1.45278 -0.346906
        0.0604725 2.01395 -0.176748
        -0.367377 1.2748 1.08713
        -0.329113 1.26596 0.394385
        -0.56276 1.1009 1.66552
        0.352632 0.274354 -0.275912
        0.756206 1.22577 -1.46546
        1.02796 2.37222 0.914762
        -0.509578 0.49817 -0.998096
        0.124596 0.738888 -1.1813
        0.885168 0.869769 0.126171
        0.421629 0.592865 2.197
        0.408719 2.05393 0.653276
        -0.898087 1.68946 -0.446391
        -0.364691 1.62899 0.872999
        0.245057 3.00327 -0.634115
        -0.896498 0.953016 0.846538
        0.396707 1.19488 -0.48031
        1.08516 2.24638 1.50779
        0.0989654 2.36603 -0.660337
        -0.677693 0.274589 -0.960666
        -0.22598 1.28693 -0.0489946
        -0.160372 0.637882 0.642623
        0.909936 1.7005 -0.055001
        1.79529 0.979142 0.22117
        0.700501 1.03296 -0.75285
        -0.201532 1.20694 0.993143
        -0.29899 1.01558 0.0648311
        -0.0134265 0.822511 -1.22123
        -0.771827 0.708342 -0.502629
        -0.60924 2.12322 0.195956
        0.309802 1.18842 -0.686604
        -0.593907 0.0963218 0.925862
        -0.0593877 0.844437 1.46155
        0.711549 2.98718 0.447193
        -0.187503 1.56233 -0.144062
        -0.487843 1.08665 1.58674
        -0.333112 1.60682 0.632702
        0.206164 0.861901 -0.750266
        -0.564245 2.62731 0.68546
        -0.61229 3.12931 -0.628984
        -1.22081 1.23499 0.63399
        -0.145453 1.0665 0.407113
        0.584136 1.06751 1.08596
        -0.72164 1.16181 0.530165
        -0.239028 1.87737 -0.42998
        -1.43564 0.890789 0.172496
        0.911356 2.23017 0.0267596
        -1.03195 2.02387 0.207368
        -0.216958 1.36465 -0.329677
        1.20881 1.16431 -0.348258
        0.50596 1.16718 0.321607
        -0.639397 2.53823 0.373669
        -0.831962 2.50314 -0.507003
        0.572039 1.36509 0.423068
        -1.8014 0.557114 0.696231
        0.382902 1.63634 0.157752
        -0.938531 1.30719 -0.589098
        0.281853 1.07121 -1.24955
        -0.920672 0.595641 -0.498588
        0.580649 2.16204 0.423544
        0.0067831 0.786439 -0.689327
        0.780124 0.927212 -0.258775
        0.85726 0.487411 0.445233
        0.284183 2.96643 0.251414
        -0.621408 2.20632 -0.474782
        -0.0114798 1.65343 -0.651277
        0.521379 1.96915 -0.506666
        -0.165434 2.50621 0.954284
        0.0790057 1.16819 1.33601
        -0.0248155 1.71589 0.699136
        -0.296221 0.744374 0.488338
        -0.805529 0.830738 -0.361278
        -0.712741 1.84568 -0.298131
        -1.20236 0.857206 -0.912647
        0.342854 0.847993 0.219012
        -1.06377 1.90548 0.53819
        -0.690155 0.440441 -1.28103
        -0.481017 0.74117 -0.88399
        -0.843481 2.59291 0.00130121
        0.347796 0.596745 1.80483
        -0.0703556 1.05686 0.48897
        -0.0906139 1.7626 1.12927
        2.14199 2.03439 -0.112868
        -1.75229 1.75526 -0.701286
        -0.634421 -0.783863 0.614323
        -0.60377 0.779496 0.44352
        -1.02471 1.40629 -0.139046
        1.12448 0.777734 0.25769
        0.158189 3.24275 0.198288
        0.866126 1.51143 0.492173
        -0.52632 1.89485 -0.322087
        0.498351 1.25445 -0.873733
        -0.229195 1.12684 0.558336
        -0.340831 1.44319 -1.52479
        0.183288 1.52564 0.158664
        1.51628 0.290708 0.587548
        -0.154533 0.782132 1.37598
        -0.0909419 1.55498 -0.138814
        0.437101 1.56356 -1.42486
        0.351031 0.803623 -0.304751
        0.0459699 3.33588 0.516307
        0.207291 2.52455 -0.224442
        0.343018 0.267855 0.932014
        -0.179252 0.452166 -0.496682
        0.335133 0.81152 0.377826
        -1.04868 1.61273 -0.0617632
        -1.4032 1.2711 -0.468819
        -1.43898 1.31267 -0.0655897
        -1.24993 0.275382 0.121696
        -0.377321 1.29327 0.0095563
        -1.61178 1.98074 -1.7061
        -0.181525 2.4907 -0.522794
        -0.274012 1.59079 -0.300824
        -1.70032 1.75681 0.847808
        -0.0235892 1.40669 0.216565
        0.769415 0.934937 -0.959167
        0.215073 2.3075 -0.260366
        -0.901825 1.84578 -0.932681
        -0.276174 0.631395 0.55534
        -0.3876 2.005 0.647754
        0.294208 0.729478 0.806273
        -1.15116 -0.40179 -0.817082
        -0.069771 -1.56528 0.315328
        0.351245 0.191508 0.0031972
        0.656119 -0.746942 -0.202931
        -1.34733 -1.70497 -0.0608207
        -0.204414 -1.49991 0.373027
        0.90815 -1.21657 -0.829799
        -0.366584 -1.21977 0.500867
        -0.0783824 0.0806894 -0.743854
        -1.12689 -0.293766 -0.346678
        1.34367 -2.78033 0.597637
        -0.525155 -1.80427 0.366802
        -0.347796 -0.596745 -1.80483
        -1.12241 -0.0686008 -1.18035
        -0.772618 -0.218096 -1.0248
        1.05689 -0.898173 0.739297
        -0.580335 -1.76618 1.56445
        -0.372939 -0.143567 -0.886547
        0.206518 -0.998731 -0.0278548
        -0.814978 -1.00729 0.874196
        -0.523261 -0.59399 -0.909064
        -0.446947 -1.10546 -0.811063
        0.172251 -1.38678 -0.161235
        -0.978387 -1.23433 -0.127892
        0.603328 -2.19184 -0.885523
        0.263148 -0.201917 0.0652246
        0.429 -1.96343 1.53727
        0.504109 -1.43128 0.0849708
        0.289666 -0.737022 -1.21438
        0.352178 -1.96022 -1.00165
        -0.843739 -1.91019 0.273687
        0.247187 -1.34751 1.37681
        -0.4589 -2.6937 0.430343
        0.414061 -1.8198 -0.465946
        -0.999203 -1.81829 -0.60644
        -0.118991 -2.49438 -1.29294
        0.181439 -1.52466 0.403083
        0.445517 -1.36115 -1.02182
        -0.0542073 -1.61191 0.961651
        -0.158189 -3.24275 -0.198288
        0.174016 -1.11709 -0.350094
        0.375184 -1.46044 -0.0593808
        -0.039908 -0.372698 0.200378
        0.925985 -2.49062 -0.906601
        -0.236018 -2.46914 1.01141
        -0.141967 -2.3253 0.357137
        0.821994 -1.46464 -0.0975691
        -0.493774 -0.940636 -0.345462
        -0.130035 0.434287 -0.0446296
        -1.18864 -1.46756 0.0688781
        -0.0650342 -2.20038 -0.488615
        1.02597 -2.42432 -0.408508
        0.912204 -1.00439 -1.3926
        0.22113 -1.3364 0.0481149
        0.782146 -2.06817 -0.786244
        0.739129 -1.98341 -0.0966952
        0.522347 -1.28096 -1.62446
        0.171921 -0.676378 0.62947
        -0.620918 -1.82436 0.23389
        0.0993353 0.0519184 -0.74078
        1.33727 -0.800529 0.577862
        0.238032 -1.62421 0.880592
        1.59403 -2.19172 0.257032
        0.206598 -1.64194 0.599734
        0.73942 -1.28078 0.0102055
        0.0114798 -1.65343 0.651277
        0.105151 -1.8175 -0.0309945
        0.552602 -1.43993 -0.661523
        -0.369514 -1.07578 -0.0720116
        -1.00836 -0.624995 1.10491
        0.0697797 -1.7616 -0.110299
        0.34758 -1.14066 -0.127986
        -1.30958 -1.19892 -0.238084
        -0.542297 -2.00048 0.4874
        -0.0334026 -0.731088 -1.63846
        0.533169 -1.11496 0.83189
        -0.267373 -0.420822 0.645816
        -0.953102 -1.604 0.3439
        0.276249 -1.98267 0.814293
        -1.01622 -1.11639 -0.227171
        -0.490648 -1.44784 1.23904
        -0.472607 -2.04123 0.427868
        -0.0658477 -2.07119 -0.0991211
        -0.34582 -2.19085 -0.812557
        0.221563 -0.873642 0.0823044
        -0.215952 -1.33938 -0.283418
        0.62066 -1.24689 -1.47766
        -0.629045 -0.409511 -0.870542
        0.080376 -1.72061 -0.342859
        0.173502 -1.0231 -0.0817965
        -0.237986 -1.33107 0.409574
        -0.635287 -0.45593 0.144529
        -0.946864 0.0156086 -0.245294
        0.453203 -1.46914 0.566756
        -0.0919482 -1.62789 -0.385202