<?xml version="1.0" encoding="UTF-8" standalone="no" ?>
<VTKFile byte_order="LittleEndian" type="UnstructuredGrid" version="0.1">
  <UnstructuredGrid>
    <Piece NumberOfCells="0" NumberOfPoints="1764">
      <PointData>
        <DataArray Name="velocities" NumberOfComponents="3" format="ascii" type="Float32">
        -0.217719 -3.79585 -0.333859
        -0.414355 -3.87013 -0.531876
        -0.797262 -2.9448 -0.792729
        -0.837523 -2.74765 1.09147
        -0.996625 -2.40925 -0.830439
        -0.560592 -1.86158 -0.98319
        -0.996003 -3.07305 0.387121
        -1.2685 -2.52434 -0.787966
        -0.174907 -2.47383 -1.22361
        0.0545714 -2.82797 -0.0951726
        -0.867149 -1.86728 -0.54231
        0.646862 -2.19146 0.468438
        0.125188 -3.1546 0.248852
        0.159379 -3.00409 0.503197
        -0.0523061 -1.00434 -0.0406547
        -0.400063 -1.54581 0.148373
        0.286228 -3.19167 0.309174
        -0.413356 -2.49093 0.749055
        -0.228078 -0.939635 0.101799
        -0.0591099 -0.998603 -0.429229
        0.762203 -1.43157 -1.07249
        -0.269495 -2.89176 0.719988
        0.0684591 -1.40524 -0.608302
        -0.532742 -2.11277 -0.579946
        -0.186679 -1.43574 -0.677453
        -0.473232 -1.65589 0.56247
        0.657358 -1.08393 -0.653163
        -0.0207081 -2.61825 -0.469122
        -0.324815 -2.17906 -0.383877
        -0.472406 -2.33482 -0.196674
        0.176006 -2.12351 -0.548408
        1.67345 -0.840549 0.643029
        -0.689863 -2.02928 -0.455107
        -0.63158 -1.64613 -1.44658
        0.770878 -2.15018 -0.744159
        0.661475 -0.750518 0.403101
        -0.0248235 -1.62372 0.163629
        0.333533 -2.12937 -0.464162
        0.334407 -2.33515 -1.41339
        -1.23481 -1.70342 -0.259208
        0.195661 -2.44974 -0.867585
        -0.205267 -2.78637 -0.576159
        0.101987 -1.75186 -0.493781
        0.24196 -2.26774 -0.435451
        0.738379 -2.83703 -0.542861
        -0.661548 -1.97566 -0.129659
        0.0857502 -1.47061 -0.282884
        -0.975539 -1.84681 -0.153911
        0.199551 -3.23205 -0.400638
        -0.885463 -1.77349 -1.11563
        -0.484183 -2.68396 0.0574187
        0.687508 -1.9904 1.22708
        1.55367 -1.76344 -0.214721
        0.521376 -0.325081 -0.37693
        -0.705682 -0.652536 -0.447097
        0.0701853 -2.0684 -0.471594
        -0.409561 -3.54201 0.736864
        0.878931 -1.73926 0.546328
        -0.176305 -1.45599 -0.241412
        -0.501336 -1.69786 -0.660305
        0.359036 -1.6601 -0.640312
        -0.299477 -2.57344 0.0920738
        -0.937948 -1.5581 -1.29338
        -0.00412194 -2.09347 0.390752
        -0.138295 -2.99975 0.220946
        -0.62661 -1.90067 0.591944
        -0.906777 -2.14729 -1.09002
        -0.297766 -2.37893 -0.267282
        -0.450523 -2.41792 -0.79407
        -0.445725 -2.51115 -1.23348
        0.478642 -2.3631 0.294981
        0.732961 -1.33905 0.0344343
        0.0574923 -2.36646 0.179603
        -0.138183 -1.94188 0.485164
        -0.861278 -1.34882 -1.39513
        0.748482 -1.58983 -0.759318
        0.11893 -2.4032 0.451477
        0.510905 -1.61282 0.196316
        0.924254 -1.69568 0.488236
        1.1335 -1.76142 -0.547096
        0.349338 -2.61969 -1.21794
        0.57366 -3.25491 0.690443
        0.207905 -0.812236 0.0651465
        1.68543 -1.18162 0.167687
        1.02693 -2.35172 -0.214734
        -0.153995 -2.00919 -0.447502
        0.826287 -2.21497 -1.67507
        1.02857 -2.49481 0.709919
        0.180983 -1.6203 -0.551195
        1.24401 -0.717727 1.51118
        0.175926 -3.23468 0.119329
        0.927454 -1.83378 0.303198
        0.628292 -0.875732 0.00140853
        -0.717567 -0.788695 1.05246
        -0.541447 -1.11277 0.0769633
        -0.337743 0.358192 -1.31772
        1.06155 -0.358691 0.153662
        0.542411 -2.28026 0.513295
        -0.925478 -0.782021 -0.426879
        0.110633 -0.889661 -0.621608
        -0.466848 -1.42416 0.0611659
        0.88278 -1.18218 0.190275
        -0.220309 -1.89549 1.13698
        1.10216 -2.68767 -0.388747
        1.12535 -0.641657 0.986599
        0.330728 -3.24221 0.284932
        1.80636 -1.23722 -0.334831
        0.593504 -0.931918 0.0978127
        -0.599508 -2.00029 -0.605684
        1.08702 -1.17043 0.121592
        0.00822263 -0.996365 0.595236
        -0.270349 -1.9576 -1.22955
        0.493276 -0.769295 0.716911
        0.921166 -1.35657 0.76439
        0.294265 -1.87546 -0.201651
        -0.549514 -0.634282 -0.62998
        -0.621068 -1.30177 -1.015
        -1.41522 -0.234869 1.26541
        -0.120074 -1.67057 -0.474945
        -2.59997 -0.580995 -1.00424
        1.1155 -0.635151 0.481242
        -0.706384 -1.49337 0.0853135
        0.132627 -0.99713 -0.44009
        0.941939 -1.18752 -0.569287
        0.855849 -0.674399 0.0196422
        -1.06248 -1.45841 -0.105031
        -0.160861 -0.882183 -0.0589094
        0.218263 -0.350904 1.04895
        0.0705857 -0.396979 -0.0315144
        -1.32739 -0.643319 -0.356748
        1.09658 -0.69703 1.1592
        -1.29999 -1.09488 -0.548093
        0.469566 -2.01904 0.423379
        -0.568296 -2.51292 0.387968
        0.716653 -1.27777 0.233038
        -1.04485 -1.47686 -1.1621
        0.678876 -1.99098 -0.215927
        1.31931 -0.915816 -0.259381
        -0.134838 -1.06611 -0.170915
        -0.621674 -1.16052 -0.153304
        0.252956 -0.135188 -0.394806
        -0.372023 -1.31393 0.398917
        0.971012 -2.82453 -1.04607
        -1.89048 0.415248 0.685502
        0.937105 -2.15883 -0.778427
        1.1713 -1.98746 0.461097
        -0.131055 -0.716386 1.64026
        0.0676665 -1.71074 1.30931
        -1.66534 -2.06391 -0.13506
        -1.62351 -1.52606 -1.13811
        -1.13387 -2.00683 0.628856
        0.674159 -3.0207 0.0356177
        0.914125 -2.91719 0.508915
        -0.195363 -1.93215 -0.357338
        -0.565893 -0.403468 -0.0497875
        -1.6595 -1.7709 -0.904911
        0.899177 -1.16817 -0.631665
        -0.0563527 -2.74442 -0.387218
        0.199588 -1.12131 -1.27982
        -0.37708 -1.15885 0.697727
        0.779403 1.808 0.684688
        -0.928004 -0.569785 0.22891
        -0.218746 -1.02427 0.623735
        1.54912 -0.602201 -0.46221
        0.210764 0.0631985 -0.104549
        2.38211 -0.188959 -1.6536
        0.203027 2.33801 0.399539
        1.41593 -1.09571 -0.516129
        -0.452098 -0.592404 0.661852
        -0.369674 0.545892 0.83663
        1.40075 -0.696855 0.350674
        0.754015 0.852672 -1.09505
        1.47932 -0.00934794 0.0199495
        -0.910999 0.846952 0.903819
        -0.264146 0.218184 0.395921
        -0.729709 0.115986 0.0910234
        0.336497 -0.177773 -0.736285
        -0.417365 0.521491 0.118918
        -1.45241 0.428026 0.200199
        -0.822712 0.334201 -0.373639
        -1.9525 0.163819 -0.579654
        -1.42426 0.296857 -0.806505
        0.529971 -0.378875 -1.13732
        -1.49375 0.656327 0.214138
        -0.566297 -0.293727 0.743555
        -0.920928 -0.766928 -0.10342
        -1.26663 0.814109 0.231803
        -0.100473 0.797908 -0.627368
        -1.15911 0.734441 0.0992986
        -0.376338 0.438414 0.349366
        -0.319403 0.233757 0.287029
        -0.266138 0.212901 0.0965731
        0.180623 0.700171 -0.336918
        0.480646 0.0112923 -0.34977
        2.15549 -0.421349 -0.00421648
        -1.65376 0.536119 0.295077
        0.799181 0.263045 -0.0417784
        -0.603011 -0.0565948 0.119685
        1.99023 -0.312703 0.0910003
        -1.34155 0.551479 -0.106554
        0.566565 0.720362 -0.0525791
        0.732819 0.636292 -0.103083
        0.571944 0.680213 0.034117
        1.00653 0.327635 -0.498308
        -0.543 -0.722811 -0.218815
        1.82222 0.737577 0.291482
        -0.0526949 0.638647 -0.0309342
        0.127842 -0.280224 0.213258
        1.63122 0.956199 0.513158
        1.36753 -0.0162421 -0.226426
        -1.1365 0.0471727 -0.255371
        0.708055 0.0411115 0.278759
        1.06172 1.14164 -0.355742
        0.731719 0.391874 -0.394445
        2.79905 0.181524 -1.44085
        -0.831017 -0.204768 0.849818
        -0.249001 -0.292962 -0.857078
        -0.88499 -0.350246 1.0729
        0.575233 0.124532 0.460612
        0.015761 -0.499775 1.70834
        -0.716888 -1.18251 0.998294
        -0.835819 -0.645695 0.422969
        1.84627 -1.9155 -0.599184
        -0.0740132 -1.81641 0.445688
        -1.3333 0.265935 0.341195
        0.383382 0.9939 -0.651565
        -0.18564 0.785671 1.15703
        -0.835868 -0.131003 -0.0843652
        1.05238 -0.432127 -0.393968
        0.510868 0.339295 -0.755017
        -0.369019 0.45615 -0.466729
        -0.664811 -1.56233 2.03598
        0.320518 1.19606 -1.10853
        -0.547123 3.08191 0.203475
        -0.00356561 1.22755 1.04917
        -0.0586941 1.78272 -0.339358
        -0.15959 0.887697 -0.056641
        0.220187 0.717917 1.3213
        0.343995 0.738862 -0.437298
        -1.32259 2.60535 -0.060438
        -2.11561 0.168263 0.475981
        -1.35497 0.698062 0.19878
        0.197618 2.94885 -0.289794
        -0.287229 1.24201 1.25018
        -0.593457 1.52544 0.704835
        -0.677777 1.67711 0.0489474
        0.35554 1.92305 -0.262924
        -0.900509 3.50143 -0.0145457
        -0.901632 2.25658 -0.149195
        -0.16237 3.07532 -0.494286
        -0.0380899 2.60183 -0.232362
        1.11019 2.83637 1.37039
        -0.622394 2.32018 -0.240099
        -0.597753 1.82267 0.320009
        -0.110436 2.35494 -0.482507
        -0.364599 1.53906 0.0286777
        -0.936901 0.435526 -0.0378
        1.68333 0.590029 0.131133
        -0.943268 0.623343 0.293411
        -0.463384 2.06426 -0.78272
        0.100185 1.64596 -0.270801
        1.15595 2.56667 -0.656702
        -2.20506 1.36991 0.552781
        -0.270779 2.15663 -0.200512
        0.0332578 1.45197 0.949551
        0.675699 0.48393 0.582906
        -0.362717 1.49163 0.363597
        0.783809 1.2706 0.275109
        -0.12613 2.59428 -0.633344
        -1.67411 0.26497 0.164266
        -0.626874 2.17915 -0.0443093
        -0.859123 1.96788 0.70806
        0.836296 1.08689 0.277176
        1.44136 0.851912 0.1634
        -0.349294 0.928145 0.226529
        0.899883 1.52476 0.571632
        -0.905566 2.09813 -0.15852
        0.354275 1.53461 -0.0571488
        0.37361 0.743099 1.24967
        -0.0109097 0.427836 -0.0694169
        -0.297183 0.625386 0.465759
        -0.106856 1.41995 -0.375373
        0.0903972 1.72167 -0.662736
        -0.0233185 1.58944 0.125194
        -0.302547 2.74143 -1.22174
        0.411726 1.09367 0.172455
        -1.0578 2.87116 0.0738951
        0.705724 1.05144 0.247926
        -0.463827 0.860927 -0.0368744
        -0.0640212 0.933072 -0.250195
        -0.622259 0.22973 -0.0998713
        0.751171 0.774148 -0.411458
        0.858657 2.3559 -0.0185019
        0.191396 1.87556 0.947885
        0.151531 1.98653 0.542048
        -1.04242 1.99677 -1.07592
        -0.427593 1.54568 -0.0114713
        -0.460894 0.449823 0.837678
        0.202594 0.644771 0.191704
        -1.5414 3.0974 -0.421479
        -0.263316 2.34797 0.661206
        1.02396 0.39348 -0.268997
        0.107812 1.1352 -0.538077
        0.0317104 2.76194 0.443884
        -1.09942 1.49477 1.32707
        0.606761 1.15185 1.47524
        0.0352409 0.522976 -0.909182
        -0.203053 2.3564 0.102939
        -0.842837 2.52149 -1.56053
        0.188645 1.55307 -0.561552
        0.561903 2.34628 -0.265024
        0.718545 2.97781 -0.0930748
        -0.853972 1.48116 -0.998739
        -0.341051 2.55532 -1.04958
        0.145875 2.54705 -0.0958885
        -0.673681 3.21438 -0.807535
        0.246553 2.38868 -0.0880075
        -0.405742 1.90082 1.19517
        0.320751 2.17714 0.0242992
        -0.179662 2.7945 -0.225717
        0.036129 1.71718 -0.182023
        -0.41909 1.22992 -0.232276
        0.1447 1.99648 0.369279
        0.631218 2.18226 -0.693237
        0.990439 2.57493 -0.0616553
        0.858501 1.60666 0.0478288
        0.221227 2.73083 0.0798682
        1.37323 1.79301 -1.12214
        0.270727 1.05674 0.309732
        1.00262 1.98794 -0.214032
        -0.026783 1.18702 -0.0208818
        0.702677 1.61694 -0.247259
        -0.2493 1.8133 -0.227931
        0.0630782 2.38662 -0.0914719
        0.199039 3.92543 -0.285714
        0.300228 2.14244 -0.266573
        -0.376172 2.96967 -0.673622
        0.44985 3.25215 -0.582662
        0.804043 1.23183 -0.64658
        0.0742445 1.31559 -0.353686
        0.549797 2.11921 0.105619
        1.13216 1.4553 0.305127
        -0.167863 2.27574 0.0174038
        0.100904 1.53788 0.0398236
        -0.427439 1.89661 0.100829
        1.13028 1.00175 -0.354717
        0.528476 2.1405 -0.248338
        0.196031 1.70505 -0.887838
        -0.907154 1.87743 -0.801831
        -0.161592 1.14476 -0.442525
        -0.216971 1.56655 -0.654428
        0.375436 2.11541 -0.778854
        0.825448 1.49909 -0.344223
        0.274689 2.3825 0.370432
        -0.249922 1.66015 -0.456046
        -0.20721 2.09054 -1.28663
        0.137054 2.42629 0.256063
        0.754277 2.03964 -0.0150395
        -0.0296742 2.62672 0.126275
        0.150617 2.52625 -0.24628
        0.149644 2.05259 -0.263839
        0.779461 1.83214 -0.259816
        -0.908476 1.74826 -0.0612033
        0.665258 3.08265 -0.318983
        0.273762 1.90057 0.24878
        0.684891 3.69879 -1.5147
        0.0462613 1.93652 0.101762
        1.46021 3.156 -0.384285
        0.944606 2.18408 -0.584111
        0.457609 2.94041 -0.122448
        -0.665342 2.34537 -1.03097
        -1.3558 1.86143 -0.757004
        -0.669353 1.64904 -1.33407
        -1.50627 3.42593 -1.07517
        0.895699 1.91532 -0.438142
        0.0578943 3.05429 -1.43897
        0.046688 -3.04004 0.102849
        -1.19516 -3.60587 0.0613304
        -1.34236 -1.8136 -0.436437
        -0.477902 -2.98319 -0.273817
        0.248171 -1.52248 1.03997
        0.873558 -2.1341 -0.0612388
        -0.00597972 -1.52615 0.527546
        -0.732548 -2.41395 0.322674
        -0.672145 -3.80106 0.647721
        -0.565916 -1.34179 -0.36569
        -0.178747 -1.7524 -0.278768
        0.214807 -1.43688 -0.969892
        1.02599 -1.95084 -0.518179
        0.246225 -2.43177 -0.291898
        0.310654 -1.08143 0.0333148
        -0.640853 -1.61884 0.238086
        -0.30334 -2.26459 0.125982
        0.217194 -0.896998 -0.0570657
        0.47266 -1.32948 -0.114395
        -0.435877 -1.62752 -0.154392
        0.422615 -0.951868 -0.707058
        0.626636 -0.872984 -0.036755
        -0.740001 -1.86355 -0.261851
        -0.0424371 -1.42081 -0.11196
        0.265934 -2.50336 0.862482
        -0.460271 -0.838692 0.240231
        -0.323818 -1.85976 -0.279779
        0.755007 -1.38996 0.308984
        -0.143021 -1.2226 -0.293514
        -0.558527 -1.17633 0.0681917
        0.150182 -2.77172 0.229735
        0.155763 -1.26379 0.00234222
        0.0355085 -1.47937 0.226564
        -1.18233 -2.09799 -0.267527
        -0.384592 -1.7513 -0.199361
        0.103253 -1.71019 -0.313048
        -0.58354 -2.15706 -0.261199
        -1.29255 -1.35849 -0.380268
        -0.431741 -2.75788 -0.545873
        -0.724724 -1.15434 -1.20192
        -1.14229 -1.53285 0.526013
        0.290963 -2.10984 0.294904
        -0.39192 -1.84919 0.137458
        -0.360861 -1.54009 -0.0657595
        0.918254 -2.37062 0.419953
        -0.768558 -2.13428 -0.207369
        -0.710606 -1.59945 -0.66588
        -0.0665737 -0.546886 -0.431223
        -0.250601 -1.39834 -0.166542
        -1.01165 -1.55209 -0.433979
        -0.0407377 -1.24934 0.279562
        -0.746439 -1.87747 -0.418802
        -0.595998 -1.51623 -0.156547
        -0.307873 -3.13329 0.357608
        -0.480801 -2.20232 0.113014
        -0.176557 -2.81084 0.24641
        0.362418 -1.60288 -0.288349
        -0.178755 -1.74728 -0.000517816
        -0.962878 -1.40931 -0.249078
        -0.198145 -2.0504 -0.567351
        0.185743 -2.3022 -0.250739
        0.816655 -1.30866 -0.216988
        0.250264 -1.80191 -0.353726
        -0.59296 -1.2399 0.113281
        -0.256599 -2.76979 0.157348
        0.583782 -2.07192 -0.876407
        1.08856 -2.84634 -0.0474481
        0.545382 -2.39769 -0.842707
        -0.51377 -2.31137 0.0737193
        0.0730245 -2.14446 0.516983
        0.1863 -1.76343 0.206438
        1.03061 -1.38682 -0.214063
        0.162653 -1.74034 -0.0207128
        -0.325072 -2.10336 0.267335
        1.58562 -1.24735 0.0554685
        0.472824 -0.0378861 0.0113425
        0.613179 -1.93185 -0.479618
        -0.0109833 -0.758612 -0.227483
        0.484922 -2.02234 0.476071
        -0.0436734 -1.40287 -0.217372
        -0.929152 0.12594 -0.968234
        0.540421 0.379247 -0.402599
        -0.404212 -0.910459 2.01321
        1.15352 -1.43438 -0.67572
        1.31524 -2.81876 1.18729
        0.435801 -2.05784 0.260426
        -0.777954 -1.80466 -0.752687
        -0.659224 -1.38286 -0.480764
        -0.342239 -0.580523 0.776634
        -0.39493 -1.48979 -0.891831
        -0.719532 -0.533397 1.17375
        0.814288 -0.899757 -0.635698
        0.502596 -0.898328 0.0287526
        0.910661 -0.276535 -0.477895
        -0.262056 -1.35027 -0.680503
        -0.7621 -0.574987 -0.643696
        -1.63805 -1.0391 0.868273
        -0.317132 -2.17764 0.935751
        -0.176949 -1.74458 0.48333
        0.464554 -2.85101 0.152745
        0.0406599 -0.968675 -0.326186
        -0.927817 -1.58895 -0.688384
        1.68365 -1.88118 0.619379
        1.75671 -1.20432 0.226734
        -0.238307 -0.354674 0.660605
        -0.22838 -1.80494 -0.113032
        1.63581 -1.15028 -0.679723
        0.964777 -0.18073 0.83596
        0.463895 -1.12804 -0.331539
        1.23958 -1.22498 -0.456916
        1.73016 -0.901717 0.0499817
        -0.20471 -1.19935 -0.792524
        0.97645 -1.03956 -0.396592
        -0.148499 -0.795048 0.970338
        1.77269 -1.22735 -0.626751
        -0.445754 -1.06183 0.493258
        -0.689695 -0.775848 -0.588845
        0.462651 -0.479921 0.0526235
        0.220467 -1.61839 -0.348417
        0.378438 -1.71311 0.631873
        1.41602 -0.716316 0.494549
        0.592467 -0.518446 -0.635756
        -0.822234 -1.6401 -0.870514
        -0.644036 -2.47087 -0.264571
        0.392182 -0.74388 -0.0882974
        0.31474 -1.98287 -0.935586
        1.07205 -1.27792 -0.0610584
        0.417199 -1.52478 -0.871066
        -0.18763 -1.05172 -0.709746
        -1.28616 -1.6377 1.37038
        0.825085 -0.932228 0.654268
        -0.553836 -1.1865 0.556847
        0.717847 -1.387 -1.9756
        -0.373843 -1.33297 -0.343765
        -0.527359 -1.93802 -0.0998299
        1.35144 -1.96068 -1.12973
        1.00474 -0.763639 -0.37654
        -0.291039 -2.35519 -0.401047
        0.292426 -0.87977 -1.22783
        -0.283251 -2.42081 0.0706418
        0.681507 -2.26101 -0.0973335
        -0.0925902 -1.93357 0.0499993
        -0.448478 -1.95771 0.0914617
        -1.1382 -0.514376 0.441676
        1.02457 -1.41031 -0.282583
        0.231469 -1.23132 0.0272875
        0.49658 -1.53562 0.529721
        0.69586 0.516647 -0.805409
        0.971721 0.331928 -1.50583
        -0.344515 -0.951704 0.563422
        0.0603232 0.668627 -0.642337
        -0.97985 0.996639 -0.381376
        -0.303476 1.71902 0.16261
        1.15675 0.850811 -0.175465
        0.338362 -0.667736 -1.01148
        -1.30483 -0.752551 -0.0244622
        -0.0348667 0.00666163 0.724606
        -0.0800127 0.653375 -0.0013998
        -0.961227 1.70428 0.221121
        -0.481314 -0.534499 -1.00383
        0.182347 0.45997 0.0858922
        0.944205 -0.344115 -0.371456
        -0.20225 0.0778171 0.388573
        0.0231665 -0.568899 -1.50528
        -0.676751 -0.154423 -0.0522903
        -1.39161 1.05875 -0.837745
        -0.79144 -0.748871 0.178606
        -0.597784 -0.714194 0.150839
        -0.23196 0.00494261 -1.56237
        0.754803 -0.961706 0.295636
        -1.53564 0.583936 0.0540034
        0.244485 0.508593 -0.264995
        0.962986 0.688533 0.161321
        -0.118254 -0.430736 -1.30686
        1.34347 -0.422465 -0.212963
        0.584702 -0.520968 -1.48626
        0.135284 -0.235194 -0.48732
        -0.953094 -0.00438492 0.675927
        0.185937 -0.215211 0.621535
        -0.0038003 -0.089849 -0.198338
        0.127575 -0.529634 -1.29901
        0.721552 -0.00551382 -0.228071
        -0.262617 0.257666 -0.020173
        0.0290769 1.00056 -0.852309
        -0.806951 1.0372 -1.52008
        0.284452 0.323657 -0.248616
        0.162402 -0.645196 -0.215918
        -0.381315 -0.739224 0.218586
        0.493169 -0.203108 -1.42902
        -0.356943 0.858762 0.467116
        0.799747 0.47111 0.308133
        0.113022 -0.209993 -1.61733
        -0.337094 1.23794 -0.508681
        0.680545 -0.993198 0.22532
        -0.483053 0.323064 0.109779
        -0.650227 -0.365386 0.838234
        -0.524748 -0.76774 1.11736
        -0.122263 0.484134 -1.16854
        -1.14229 -1.38816 -0.305261
        0.410224 1.97219 -0.769758
        -1.36603 0.741598 1.02898
        -1.02404 1.57259 1.29168
        1.03242 0.613782 2.16235
        -0.783047 -0.260155 0.680104
        1.31552 1.19275 -0.255144
        -0.250152 0.426245 0.186758
        0.570587 -1.12026 -0.084491
        1.52242 -0.964809 0.277474
        -0.937017 1.78709 -0.394377
        0.251545 2.24772 -1.10871
        1.38441 1.41634 -0.194672
        -0.194541 1.57676 1.50712
        1.36927 0.716791 0.495486
        -0.804924 0.565194 0.758885
        -1.76546 1.79368 -1.17607
        -1.18791 2.32587 -0.128628
        -0.237678 1.47808 -0.902639
        0.825749 2.67946 0.682324
        0.100267 0.149341 -0.419333
        0.282832 2.10346 1.131
        0.301623 1.55287 -0.746754
        -0.298067 1.90102 -1.09424
        -1.23014 1.60403 -0.0741554
        -0.493853 2.61814 -0.0750039
        1.01397 2.21743 -0.976859
        1.23315 2.41683 -0.487855
        0.437753 0.405491 0.22067
        -0.257943 1.37852 -0.230624
        -0.295391 2.71621 1.04713
        1.01095 1.4843 -0.446011
        0.579454 2.7564 -0.96358
        -0.55553 1.4094 0.635505
        0.972579 1.84883 0.171282
        -0.141916 1.93244 0.223985
        -1.68334 1.83784 -0.0124151
        -0.45905 1.46068 -1.07186
        0.2413 1.63996 -1.19046
        -2.13106 1.29489 -0.853245
        -0.574917 1.38843 -0.124612
        -0.255796 1.19237 -0.301163
        -0.547361 1.04607 0.646982
        -0.116456 1.30435 -0.468408
        -0.99936 1.899 0.15039
        -0.995227 1.41514 -0.129449
        -0.484869 0.0956102 0.00639799
        -0.543118 1.36023 0.18334
        -0.181285 1.5617 0.175002
        0.291511 2.05777 -0.37542
        -1.11869 1.77089 0.178522
        0.652859 1.19419 -0.355656
        -0.210205 1.11927 -0.610085
        -1.37488 1.16972 -0.670908
        0.520537 1.39023 -0.564102
        -1.59771 1.34026 -0.792633
        -2.1147 0.970688 -0.525839
        -1.23293 1.10953 -0.827025
        0.337931 1.1283 -0.521045
        -0.756456 1.53874 -0.0787253
        0.262076 2.36737 -0.584131
        1.34144 2.00004 -0.621819
        0.679128 1.95909 -1.21815
        0.274395 2.05335 -0.540895
        -0.42341 1.23467 0.731855
        -0.637188 2.1443 -0.359228
        -0.94543 2.56524 1.09314
        -1.02741 1.5354 0.806948
        -0.666542 1.7184 0.291911
        0.0706909 1.16611 -0.637649
        0.788565 1.30074 -0.153846
        -0.290976 1.4095 -0.659459
        0.110879 1.72115 -0.393863
        -0.4503 1.60942 1.34192
        0.47469 0.758933 -0.670263
        0.883902 1.32906 -0.248517
        -0.217862 1.92292 1.21617
        1.56554 1.24089 -0.306817
        0.162637 2.13655 0.270348
        -0.657211 0.155383 0.704904
        -1.60674 1.74174 0.395682
        0.461486 1.09888 0.301061
        -1.14966 0.974737 0.702749
        0.581137 1.40587 -0.334042
        -0.161236 1.80372 -0.464665
        -0.23672 0.430631 0.157474
        -0.548362 0.714241 -1.41401
        -0.396818 0.754197 -0.790298
        -0.503615 1.41319 0.999318
        -0.242743 1.63839 -0.33631
        -0.0659643 1.73708 -0.488933
        -0.44341 0.921616 0.205696
        -0.0249064 2.28417 0.102681
        -0.0193425 2.32951 -0.652311
        -0.602553 2.57663 0.242943
        0.517466 2.34367 0.171856
        -0.331713 2.05994 -1.4071
        -0.750437 2.09847 0.880358
        -0.417507 2.52273 1.43729
        -0.439249 1.0962 -0.794663
        0.667899 1.68183 0.515103
        -0.898867 2.66908 0.348068
        0.169948 1.57037 -0.22412
        -0.00981782 2.32356 -0.138084
        0.528532 1.78081 0.412174
        0.20412 1.42944 -0.244506
        0.547494 1.59377 -0.385695
        0.576064 1.34183 -0.169002
        0.286036 0.653672 0.00179746
        0.297532 1.47495 1.28499
        1.26593 2.74729 0.0458577
        0.0712046 2.19909 0.723632
        1.1471 0.70355 -0.144291
        1.84043 0.289289 0.0145789
        0.954566 0.453459 0.627154
        0.299778 2.08253 -0.189422
        -0.16205 1.1441 0.444442
        0.206164 0.948168 -0.64522
        0.944439 1.48881 -0.551
        0.143146 1.69099 0.395912
        -0.620539 1.62888 -0.188497
        0.0657615 1.17385 0.0257471
        0.919563 0.856332 0.971772
        -1.1011 0.700369 -0.0477829
        0.160519 1.34578 -0.147443
        0.867946 1.80951 -0.1129
        0.815748 1.95293 0.075711
        1.1744 2.79693 -0.46851
        1.34789 1.00445 -0.0694389
        1.58499 2.22734 0.505598
        1.01668 2.47609 0.281832
        0.474125 1.4263 -0.224388
        -0.343079 1.3235 0.132338
        -0.000314953 1.97288 -1.49389
        0.580146 1.92502 0.640826
        -1.67838 -2.59072 0.465436
        -0.190609 -3.75799 0.094797
        -1.13686 -1.41718 0.222688
        -0.262667 -3.14022 0.251021
        0.213834 -2.6128 0.0865959
        -0.344305 -3.77418 -0.47673
        -1.47038 -1.71149 1.23626
        -0.492452 -1.87807 0.279968
        -1.53347 -1.03407 0.0782902
        -1.4815 -1.86867 -1.17489
        -0.431595 -1.57359 -0.935255
        -0.425201 -1.36403 0.854395
        0.0429879 -2.47032 0.0301519
        -0.988205 -2.01567 -0.775908
        -0.710217 -1.64499 0.720596
        2.0549 -3.90871 -0.86295
        0.5318 -3.09318 -0.0535183
        -1.18285 -0.0187686 -0.282677
        0.606337 -2.77959 -0.57271
        -0.567703 -0.865225 -0.502557
        0.313675 -1.51773 0.421283
        -0.162886 -2.04695 -0.0867421
        -0.242891 -1.78557 0.503965
        0.42263 0.0902053 -0.100488
        0.314508 -1.39033 0.494577
        0.417521 -1.13099 -0.00114079
        0.158922 -1.43919 -0.0663422
        -0.0237175 -0.398915 -0.290096
        -0.586355 -1.31642 0.321972
        0.771881 -0.196123 0.369573
        -0.696797 -1.63547 0.105682
        -0.317485 -0.795378 -0.471267
        -0.608924 -1.2765 -0.549122
        -0.687955 -1.78119 0.917792
        -0.664847 -1.36161 -1.31365
        -0.875722 -1.91132 0.804835
        1.09585 -2.19664 0.391366
        0.0430274 -2.37224 0.16185
        -1.13617 -3.52789 0.295981
        -0.138727 -3.13425 0.22494
        0.307958 -1.7757 0.569556
        -0.808261 -2.89566 0.472948
        0.407537 -1.72786 0.325669
        -0.568706 -1.56339 0.484127
        -0.60193 -1.3515 0.926627
        0.255363 -0.574021 0.533961
        -0.239109 0.144106 0.13626
        -1.09284 -2.13361 0.656826
        -0.416845 -2.25931 0.405301
        -0.703702 -1.2979 -1.69798
        -0.2348 -1.1265 -0.924982
        1.15712 -2.46257 0.296456
        1.56792 -2.89305 0.129471
        1.11116 -1.49937 0.381857
        0.488373 -1.63458 0.00262773
        -0.259225 -1.7753 -0.574798
        0.4107 -0.968739 0.652212
        -1.29026 -1.30737 0.395291
        -1.42482 -2.82319 -0.240207
        -0.116845 -1.09218 0.56199
        -0.623431 -1.77879 0.297229
        -1.30273 -1.04932 -0.100274
        0.481769 -1.7979 -0.0928247
        -1.17565 -1.41321 -1.37747
        -0.0630757 -1.78806 -0.855418
        -0.789497 -2.26015 0.584901
        0.280169 -2.06961 1.30738
        -0.349888 -1.75282 -0.795717
        0.313701 -1.11473 -0.345878
        0.531254 -2.00617 0.560122
        -0.466819 -1.69609 0.254804
        0.166848 -1.50869 0.698137
        0.476213 -2.04736 0.0508495
        1.05124 -1.60473 0.142264
        0.465652 -2.58977 0.525409
        0.156419 -2.46979 -0.133897
        0.67201 -1.90206 0.500714
        0.96535 -1.94857 -0.166217
        0.660579 -1.47754 0.112414
        -0.272424 -1.31195 1.2484
        0.753384 -2.53102 0.00185055
        0.288614 -2.73153 -0.680094
        1.2844 -1.70032 -0.0716097
        0.241267 -2.53832 0.0116683
        -1.64451 -1.47242 0.335441
        0.564905 -0.369734 0.589969
        -0.119359 -1.03803 0.135316
        -0.480067 -1.18585 0.684591
        0.0996996 -1.31536 0.0439676
        -0.543702 0.32229 1.03056
        0.533751 -0.105733 -2.41357
        -0.267829 -0.821155 -0.704849
        -1.07216 -0.89129 1.38064
        0.948542 -0.935818 -0.843963
        -0.859939 -2.62989 0.145264
        -0.587641 -1.55331 -0.181972
        0.0900036 -2.33341 0.144983
        -1.22688 -2.09373 0.684506
        0.850494 0.774017 -0.139761
        -0.264315 -2.0261 0.242403
        1.67039 -2.57267 0.131394
        -1.06909 -1.71082 -0.127236
        1.25256 -2.264 -1.6174
        0.0909161 -1.37717 0.190461
        0.290976 -1.4095 0.659459
        0.729555 -1.7009 0.804191
        0.646515 -1.49011 0.518345
        0.962358 -2.65203 -0.0163134
        0.460901 -0.783188 -0.383068
        -0.0264986 -2.25143 -0.0402309
        -0.308501 -1.30043 -0.34895
        0.429634 -0.672823 0.0704153
        0.578066 -1.94205 -0.0209275
        -0.110879 -1.72115 0.393863
        -0.729803 -0.455789 -0.390899
        1.14686 -1.90135 0.0313952
        0.252939 -0.555002 -0.254817
        1.35965 -1.84463 0.0933888
        2.51622 -0.741602 -0.321054
        0.210205 -1.11927 0.610085
        -0.652859 -1.19419 0.355656
        1.12784 -1.80504 0.0929012
        0.748148 -1.33216 -0.397193
        0.162267 -1.34902 -0.385235
        0.713861 -0.705308 -1.31022
        1.34958 -2.08235 -0.985619