<?xml version="1.0" encoding="UTF-8" standalone="no" ?>
<VTKFile byte_order="LittleEndian" type="UnstructuredGrid" version="0.1">
  <UnstructuredGrid>
    <Piece NumberOfCells="0" NumberOfPoints="1764">
      <PointData>
        <DataArray Name="velocities" NumberOfComponents="3" format="ascii" type="Float32">
        1.27692 -1.17233 0.768302
        -0.342093 -2.08133 0.154517
        -1.03315 -0.88281 -1.00263
        0.245438 -1.35511 -0.133681
        0.642684 -3.0019 -0.158753
        -0.43783 -1.88252 0.630081
        -0.676584 -1.60592 0.192682
        0.477243 -0.653725 -0.837824
        0.451325 -0.873274 -0.0628481
        0.701814 -0.660569 -0.431317
        -0.313346 -1.06829 1.20701
        0.233298 -0.88709 -0.57812
        0.528004 -2.234 0.644053
        -0.431025 -1.78206 0.856224
        -0.155061 -1.72131 0.306234
        0.0382724 -1.13625 0.382129
        -0.345436 -0.752899 1.12534
        -1.29872 -0.929824 -0.35547
        0.518102 -2.29908 0.895127
        -0.94411 -1.35339 -0.181388
        0.183615 -1.45141 0.911972
        0.059182 -0.54613 -0.595883
        -0.0947047 -0.233732 -0.586719
        1.24512 -2.67147 0.493239
        -0.229465 -2.73075 0.182494
        0.533287 -1.57234 0.122383
        -0.754242 -0.982029 0.957982
        -0.067576 0.659486 -1.08877
        -0.136495 -1.27167 0.580681
        -0.886818 -2.4041 -0.514972
        -0.138137 -1.28623 0.873032
        -0.611609 -2.14855 0.217197
        -0.255362 -1.5844 -0.023897
        0.759238 -1.33862 -0.628072
        -0.54853 0.245034 0.249509
        0.0870044 -1.88341 0.573946
        0.497203 -0.379231 0.54781
        -0.681853 -0.907361 1.04621
        -1.23092 -1.02976 1.49177
        -0.614173 -0.645337 0.962081
        0.153168 -0.246967 0.159158
        0.277551 -0.783857 0.884043
        0.148762 -0.00673413 0.605278
        0.550946 -1.44539 -1.04558
        0.0429575 -0.564515 0.183341
        0.858525 -0.210281 -1.00563
        0.779064 -2.5227 -0.17678
        0.700672 -1.49797 1.01114
        -0.239324 -1.66445 1.13901
        -0.294328 -2.18218 -0.332443
        -0.548287 -2.38339 -0.66148
        -0.344069 -1.8168 0.144714
        0.579391 -1.72599 -0.0494067
        0.785224 -1.64129 -0.704035
        1.15379 -1.25414 -0.879453
        0.35425 -1.20462 -0.773579
        0.269678 -0.653896 -0.946989
        0.949065 -1.73394 0.0552263
        -0.284112 -0.369852 0.684705
        0.426568 0.0905035 -0.627277
        -0.81803 -2.18589 -0.199417
        0.669178 0.671476 0.158233
        0.763193 -1.88181 -0.186868
        -0.420213 -1.26349 0.964323
        -0.13546 -2.28471 -0.178706
        0.270894 -2.26243 0.762772
        -0.685769 -0.800902 0.629669
        -1.21238 -0.649536 0.738384
        -0.178653 -1.91988 0.921563
        1.58664 -2.24765 -0.965039
        0.158498 -0.823748 -0.451945
        -0.245934 -3.31569 -0.310906
        0.940976 -1.36916 -1.48332
        -0.188547 0.243261 -0.947304
        -0.930898 -2.09162 -0.169492
        -0.383572 -1.71966 0.0075966
        -0.73537 -2.04223 -0.802247
        0.291899 -1.08026 0.697618
        1.0507 -2.21239 0.410792
        -0.627675 -0.55844 0.610898
        0.595358 -1.90842 -0.908794
        -0.841519 -1.88201 -0.288322
        -0.716605 -0.379453 0.296056
        -0.0996756 -1.381 0.265538
        -0.356991 -2.1728 0.89943
        0.535185 -0.609504 -0.45044
        0.0845285 -1.71473 -0.604275
        -1.06705 -0.659574 -0.178801
        0.481616 -1.29123 -0.502163
        0.20982 -2.02043 -0.425789
        -0.0301947 -1.16009 0.197815
        0.490084 -0.44353 0.451197
        0.126549 -0.618569 0.94547
        1.77159 -1.05305 0.618555
        1.61121 -2.38381 0.239708
        0.453563 -1.03281 0.538025
        -0.326518 -1.365 0.342371
        0.487543 -1.49368 0.205372
        -0.0917091 -0.730266 0.801222
        0.298023 -2.13408 0.330009
        0.300398 -1.18813 -0.258333
        0.207046 -2.21611 0.542394
        0.934559 -0.830889 0.421204
        -0.722622 -1.44765 -0.802319
        -0.500582 -2.07074 -0.340237
        -0.992977 -0.990015 0.0325385
        -0.484168 -0.985137 0.38619
        0.0186883 -0.339741 0.818984
        -0.788514 -0.33274 1.12832
        -0.852302 -2.28499 -1.1236
        -0.0821915 -0.876423 -0.0361935
        0.772105 -1.95557 -0.0721783
        0.532277 -1.87651 -0.211194
        0.631958 -0.600213 -0.41537
        -0.0208844 -0.89989 -1.83259
        0.122109 -1.63459 0.949916
        -0.40269 -1.08301 -0.0399338
        0.00222598 -0.699843 -0.632559
        0.325092 -0.596194 0.280104
        -0.656703 -1.0071 -1.25097
        0.751676 -1.75616 0.384746
        -0.865852 0.492286 -0.794499
        0.329464 -0.7717 0.47629
        -1.11465 -2.11368 -0.522319
        -0.224054 -1.42547 0.532952
        -1.69373 -1.53563 0.415919
        0.597353 -1.4811 -0.462315
        -0.109572 -0.864905 -0.302956
        1.18427 -0.94368 0.806402
        1.14001 -0.53968 -0.0458639
        0.540367 -2.0001 0.471613
        1.38904 -1.3336 0.113807
        -0.357346 -0.688139 -0.192828
        1.55941 -1.61263 -0.294767
        -1.04127 -1.53543 -0.547439
        -0.072428 -0.469164 -2.08011
        0.0424354 -2.22053 -0.693147
        0.310319 -0.850693 0.142628
        0.497548 0.0557138 0.394858
        0.789436 -2.12121 -0.469769
        0.493113 -0.842296 0.995149
        0.139853 -0.940156 -0.833958
        -0.580122 -2.0243 0.554876
        -0.780286 -1.32761 -0.124357
        0.245598 -1.33248 1.81857
        0.058013 0.631646 -0.755993
        0.55064 -0.425847 -0.0075229
        -0.745035 -1.56041 0.787124
        0.746134 -1.38869 0.0547223
        -0.644455 -1.04142 -1.17089
        2.35015 -0.32438 -0.15716
        -0.435114 -1.13569 -1.4089
        0.233319 0.53918 0.586973
        -0.741083 -1.08922 -0.365163
        0.624475 -1.58796 0.0708732
        -0.231848 -2.17886 0.167772
        -0.50884 0.375992 -0.53616
        0.680306 -0.936269 -0.230913
        -0.0312592 0.396091 -1.33689
        -0.642524 -0.403199 0.398251
        0.0724259 -0.997286 1.14715
        0.23097 -2.41104 -0.179912
        1.20151 -1.51508 -0.170498
        0.534429 -0.765442 0.983434
        -1.63209 -1.77724 -1.52613
        0.809803 -1.38473 0.420417
        -0.0687172 -0.174712 0.638158
        -1.60205 -0.559608 -1.02144
        -0.22046 -1.45045 0.697204
        -0.915286 -1.03442 0.736205
        -0.488003 -1.25526 -0.0239583
        -0.970354 -1.4459 0.683492
        -0.453947 -0.387805 -0.518905
        0.0233919 -0.517763 0.279256
        0.138689 -1.1776 0.637859
        0.563107 0.310175 -0.414721
        0.0017287 -1.02835 0.720161
        -0.520761 -1.43773 -0.517553
        -1.00975 -1.23771 -0.279196
        -1.48685 0.579097 -1.46717
        1.01086 -0.596897 -1.27751
        -0.428844 0.794605 -0.600112
        0.486811 -0.691239 -0.0950335
        -0.805895 -0.506041 -0.000347763
        -0.309426 -1.3596 0.93853
        -1.95586 -1.85003 1.03087
        -0.462146 -1.42548 -1.61608
        -0.116151 -1.83061 0.719439
        0.356884 -0.564698 -0.544886
        0.784758 -0.321771 -0.100399
        1.15371 0.798959 0.740896
        0.545257 2.04897 0.363313
        0.157293 0.0702499 0.220364
        -0.458286 0.13986 1.1608
        -0.902157 1.53135 -0.763533
        0.446159 0.305034 0.388528
        -0.230535 0.291586 -0.955291
        -0.972486 1.61669 -0.844333
        -0.652317 0.810719 -0.303398
        0.574691 0.208393 -0.499159
        -0.897072 2.31014 0.883046
        0.548322 -0.425597 0.902096
        -0.297118 -0.230135 1.60703
        0.319618 -0.768636 0.191333
        -0.0631329 -0.295221 1.38865
        1.35 1.10443 -0.342521
        0.5961 0.116551 0.926802
        -0.0479716 0.809267 0.0960416
        -0.158242 -0.135759 -1.12027
        -0.0992329 1.69153 1.12779
        1.55883 1.24626 0.199953
        -0.687816 2.42224 -0.136148
        -0.472599 0.71568 -1.92367
        -0.219057 0.851987 0.231854
        1.07069 1.89969 0.084033
        -0.659726 1.62947 -0.534015
        1.13442 0.854305 0.55338
        0.995197 0.585949 -0.282599
        0.286523 1.86322 -0.836159
        -0.539102 1.49735 0.232505
        -0.0775378 1.87651 -0.841874
        0.433258 2.73629 1.11735
        -0.31376 0.136591 -0.462137
        1.28482 0.429765 -0.0871121
        0.48738 2.26013 0.167912
        -0.452077 0.83832 0.548503
        0.119199 1.04406 -0.639206
        -0.352921 0.314056 1.0592
        0.0310531 0.14598 0.0849372
        -1.45219 0.0336912 -0.622898
        0.117675 1.15355 -0.0923959
        0.00422384 2.125 -0.230586
        0.463452 0.552344 -0.619977
        -0.678768 2.03651 -0.244342
        -0.160006 1.91668 -0.634497
        -0.00263141 0.702512 1.62593
        -0.15683 1.16632 0.902713
        0.395163 -0.193994 0.0601711
        -0.0123437 0.978252 -0.779895
        0.439076 1.40264 -0.199055
        -0.40472 2.36011 -0.192771
        -0.291216 2.52531 -0.303326
        -0.152429 0.605052 -0.626719
        -0.277897 1.68466 0.550058
        0.0895078 2.22269 -0.626891
        0.118722 1.83723 0.354909
        0.330697 2.38353 0.379551
        0.458424 0.979627 0.757442
        -0.257614 1.84418 -1.1476
        0.83753 1.40086 1.06606
        -1.96711 2.09696 -1.19645
        1.28556 0.883691 0.498728
        0.409467 -0.450756 0.136004
        -0.568094 1.10298 -0.552788
        -0.275656 1.31968 1.1618
        1.44723 0.943914 -0.475518
        -0.594617 1.34 0.531699
        -0.954331 2.0026 -0.110701
        -0.936621 0.137385 0.267841
        1.03269 1.21375 0.340613
        -0.518512 0.058235 0.236347
        -0.944752 2.27657 0.485079
        0.126707 2.00149 0.848222
        0.930108 1.43829 -0.24627
        0.958416 0.948326 0.688481
        -0.372365 1.51121 0.738319
        -0.369837 0.791681 0.608544
        0.332449 2.13013 -0.354062
        0.0164645 2.09078 0.456604
        -0.148551 1.50379 0.427216
        -0.714476 1.3829 -0.938501
        0.242829 1.37931 -1.06618
        -0.906038 1.88712 1.25291
        -0.788904 0.818931 0.672783
        -0.04523 1.57091 0.979494
        0.218681 2.53293 -0.310401
        0.117909 1.80269 -0.138194
        -0.886487 0.656078 0.122697
        0.365844 1.15052 -0.441961
        0.0604722 3.39419 -0.971129
        -0.655614 0.688735 0.174908
        1.67508 0.816553 0.0725342
        0.44579 0.855673 0.580441
        1.44685 0.786864 -0.859089
        -0.206307 3.70546 -0.86412
        -1.06118 0.990418 0.0430555
        0.845657 1.23874 0.425874
        0.278919 3.02631 0.649005
        0.173892 1.03534 0.752354
        0.0279425 1.06046 0.365505
        0.937582 1.64972 0.512238
        0.0194691 2.24252 -0.00236691
        -0.449851 0.906839 -0.82708
        0.936422 1.35571 0.204536
        -0.137296 -0.071383 -0.46042
        -0.200628 1.12475 -0.122111
        0.722913 1.60362 0.14882
        -0.408416 1.83707 -0.516334
        1.63589 1.11779 0.425775
        -0.611411 1.07988 -0.245028
        -1.79514 2.54539 -0.135673
        -0.467314 0.76038 -1.40136
        -1.58918 2.1946 0.675045
        0.44105 0.985593 -1.53266
        -0.483964 2.10531 -0.646054
        0.196521 1.66068 -0.21904
        -0.901592 1.41139 0.442652
        0.684488 1.54628 1.08302
        -0.197419 2.38361 0.478274
        0.711987 2.20607 -0.923263
        0.779758 1.94823 1.04795
        0.124908 1.49534 0.116987
        0.494269 2.91654 -0.164945
        -0.762382 0.612092 -0.285959
        -0.362702 1.56918 -0.666034
        0.167831 1.85078 -0.210249
        -0.449159 0.759588 0.50713
        0.463803 1.4393 -1.01966
        0.871028 1.26465 0.406492
        -0.635639 1.92094 -0.253788
        -0.864791 0.903757 -0.501463
        0.059312 1.17872 0.169248
        -1.33354 2.2219 0.0436864
        1.57314 0.86519 0.250742
        -0.299364 2.51378 2.23225
        -0.219752 0.689897 0.410157
        0.375524 1.43316 -1.16916
        0.88721 1.79331 0.889021
        -0.346563 1.23745 0.253705
        0.291448 2.35785 -0.527601
        -0.847372 1.27724 0.356237
        -0.0617754 1.91046 -0.414423
        0.594837 1.1309 -0.538489
        0.400076 1.41018 -0.420257
        -0.342775 1.47274 -0.14207
        -0.389129 0.683161 0.451393
        1.37864 2.25792 -0.10764
        0.444138 0.906589 0.215241
        -0.502015 1.00386 -0.73608
        0.43179 0.585406 -0.726156
        1.0354 1.7138 -1.14176
        -0.109317 0.654982 0.63452
        0.454449 1.95695 0.271431
        -0.51109 1.04065 -0.199721
        0.236104 1.95063 -0.122791
        0.534419 1.45711 -0.224601
        -1.11786 1.36361 0.0311428
        1.1209 0.619892 0.0173665
        0.357062 1.17498 0.735184
        0.88267 1.33574 -0.141609
        -0.659654 1.15975 0.272384
        0.0343369 2.11719 0.534243
        0.763929 2.45376 -0.43516
        -0.622046 2.27375 0.154488
        -1.34546 1.24832 7.32741e-05
        -0.340938 2.88834 0.446624
        0.402454 1.45631 0.433514
        -0.0852515 2.00251 0.0564238
        0.588046 1.19894 0.235272
        0.837495 1.4241 -0.614089
        0.276521 1.48631 0.160662
        1.22425 1.26333 -0.823377
        0.610269 0.575028 -0.463636
        -0.65924 1.81296 -0.858043
        0.277889 1.56264 -1.0173
        -0.287256 0.620144 -0.987068
        -0.425486 2.03312 -0.0756068
        -0.722994 1.65598 1.22764
        -0.275529 0.673655 0.671498
        -2.0499 1.29066 0.44546
        -0.999403 0.92977 -0.47129
        -0.240828 0.808804 0.205042
        -0.314143 1.20555 0.49459
        0.629818 1.99214 -0.760192
        0.237276 1.32687 -1.36265
        -0.114911 -0.262268 0.480709
        0.0424541 2.63296 -1.25058
        0.554484 1.46001 -0.0700344
        -0.441094 0.705529 -0.713816
        -0.50837 -0.00301495 1.07091
        0.0305988 -0.685444 -0.359474
        0.0781037 -0.379738 -0.278676
        -0.31228 -1.02988 1.88927
        2.47734 -0.592767 1.17036
        -0.545843 -0.890369 1.07434
        0.0905135 -2.21398 0.577223
        1.34319 -2.09154 -0.964905
        0.572516 -1.78094 0.0716505
        -1.65804 -1.37901 0.0407802
        0.857519 -1.62035 0.29483
        1.08872 -0.848729 -0.485302
        -0.515965 -1.42603 -1.49263
        0.0337938 -0.0639472 -0.13401
        1.06163 -0.727756 0.38467
        -0.442997 -1.22028 0.819136
        -0.382093 -1.03933 -0.442339
        -0.239909 -0.201377 0.410136
        0.76438 -1.30513 0.38953
        0.127069 -2.97057 0.196749
        -0.312066 -0.857302 0.7703
        0.10264 -0.613905 0.251038
        0.41984 -1.25437 -0.434271
        -0.253296 -0.26629 -0.0935315
        -0.179361 0.42672 -0.402671
        -0.0806751 -1.40322 -0.447481
        0.551131 -2.11847 -0.799016
        -0.592196 -1.24441 0.554035
        -0.942881 -0.41658 0.625426
        -0.612207 -1.05979 -0.835444
        -1.57032 -0.888931 0.558135
        1.65899 -1.50424 1.47094
        0.143117 -1.79963 -0.668572
        -0.390612 -1.37956 0.671694
        -0.568271 -0.124849 -0.589706
        0.240949 -2.19167 -0.0329736
        0.771694 -1.33494 -0.745752
        0.350444 -2.22209 0.763451
        0.517784 -1.0135 0.299783
        0.446227 -2.40971 0.11333
        0.808962 -2.37291 -1.41868
        -0.161926 -0.377999 1.26869
        0.0454211 -1.27918 0.558754
        -0.958012 -1.29838 -0.086788
        -0.884768 -2.16233 -0.124868
        -1.26296 -2.37806 -0.184763
        0.0160514 0.188808 0.00238922
        -0.0425361 0.460586 -0.0314053
        0.406906 -2.41821 -0.0910722
        1.51399 -1.09251 -0.395866
        0.450517 -0.868516 1.58607
        -0.385772 0.736676 0.546752
        -0.218076 -1.47594 -0.326766
        0.289203 -1.50852 -0.728032
        -1.2329 -1.11716 -0.70182
        1.08462 -2.35711 -0.417454
        -0.299853 -0.705993 0.224573
        1.09184 -1.10595 -0.430864
        0.781452 -1.2397 -1.22872
        -0.801068 -0.207977 -1.09564
        -0.264371 -1.71129 -0.609244
        1.21491 -1.51377 -0.0879658
        0.237331 -1.64989 -0.199968
        0.187096 0.366686 0.418637
        -0.218398 -1.0236 1.06685
        0.495793 -1.86529 0.524989
        0.0658042 -0.981172 -0.931793
        -0.902668 -1.95481 0.373429
        0.940627 -1.02512 -0.540908
        0.00211666 -2.49027 0.971092
        -0.04089 0.0926799 -0.832602
        -0.868834 -1.88314 -0.263143
        -1.04976 -1.31821 0.481311
        -0.186482 -1.7449 -0.106309
        0.555775 -2.37295 -0.456418
        0.540212 -1.35512 0.0995963
        -0.878767 -0.667471 0.582969
        0.538351 -1.37289 -0.137515
        0.598067 -1.82133 -1.26729
        -0.227348 -1.20772 -0.0619064
        0.921748 -0.0242679 -1.19656
        1.87644 -1.61053 0.503283
        -0.723806 -1.4359 0.861766
        1.10052 -2.63797 -0.380996
        0.425972 -0.675782 0.579255
        0.559766 -1.80483 -0.616159
        -0.101802 -1.45014 0.00395564
        -0.298283 -1.4559 -0.718578
        0.693364 -0.994852 0.175256
        0.637741 -0.150582 -0.0816372
        -0.250637 0.00254853 0.346436
        0.322966 -0.972906 -0.183901
        0.370471 -1.47968 -0.689028
        0.592445 -2.23933 0.70346
        0.579663 -0.835069 0.274969
        0.228141 -1.12115 -0.0701646
        0.983382 -2.63076 -0.465719
        0.405952 -1.56108 -0.0802207
        -0.49641 -1.32837 -0.557596
        0.544322 -0.63268 -0.758739
        -1.47272 -1.54275 0.961141
        -0.601589 -0.637025 0.00941641
        -0.0433417 -1.96584 -0.838051
        -0.113184 -0.203808 -0.875375
        0.278982 -0.655232 -1.27887
        0.810329 -1.7083 -0.568258
        0.519708 -0.787455 0.643842
        -0.227194 -2.9485 0.761195
        -1.14192 -1.15868 0.980075
        -0.711423 -2.64386 0.481327
        -1.32296 -1.21907 -0.75635
        -0.597029 -0.409564 -0.982498
        -0.461625 -0.643927 0.0498741
        -0.0808658 -2.31141 -1.0986
        0.329606 -1.3434 0.60167
        0.100337 -1.24611 1.11051
        -0.0746817 -0.187179 -0.448159
        0.0233337 -1.99913 -1.34224
        -0.0789644 -1.32622 -0.252079
        -0.503958 -1.54998 -0.0931129
        0.144782 -1.04349 0.114497
        0.697018 -1.23829 1.69417
        0.611332 -1.45192 -2.06469
        -0.607266 -2.08661 0.859317
        0.351691 -1.63956 1.16585
        -0.300987 -2.31225 -0.636169
        0.284257 -1.18882 -0.428964
        0.202306 -1.52517 -0.813657
        0.286896 -1.25528 -0.0288465
        0.881324 -1.35857 0.171938
        0.208603 -1.15441 -2.04786
        -0.0119098 -1.31465 -1.23619
        0.934364 -1.39352 0.176368
        1.00449 -2.02793 0.247776
        -0.350301 -2.31724 -0.4914
        0.757572 -1.00508 -0.288165
        1.59995 -1.00292 -0.65037
        -0.837806 -2.53964 0.432802
        0.826055 -0.77284 -0.438453
        1.30953 -1.86979 0.357508
        -0.744894 -1.19702 0.71522
        0.0174999 -2.18767 -0.0205858
        -1.44718 -0.307572 -1.52102
        0.0118301 -0.48918 -0.684144
        0.534452 -1.24293 0.366971
        -1.39653 -1.27415 -0.696032
        -1.40435 -0.332599 0.222378
        -1.1332 -1.28687 -0.379889
        -0.352467 -1.57288 -0.659177
        -0.651968 -1.11154 0.532327
        -0.608576 -0.163959 -0.356065
        0.198755 -2.16926 -0.29421
        -0.241764 -1.13745 -0.146308
        0.0390197 0.0490688 0.286023
        0.597262 -0.531191 0.0622458
        0.261974 -0.369151 -0.370297
        0.743122 -0.411812 -0.212122
        0.784708 -0.808561 -0.231944
        1.50841 -1.64002 0.76858
        1.21163 -1.56199 0.384808
        -0.748542 -0.973178 0.98394
        0.183029 -2.18451 -1.04118
        -0.693635 -0.986151 -0.269069
        -0.52566 0.278078 -1.41661
        -1.63598 -0.674585 0.89903
        -1.1075 -1.14193 1.1728
        -1.63962 -1.90384 0.657639
        -0.027876 -1.74749 -0.117909
        -0.929267 -1.22527 0.0174786
        0.441897 -1.32433 -0.258877
        -0.997743 -0.220858 -0.342443
        -0.891687 -0.327033 0.228953
        -0.773385 -1.32461 0.944255
        -0.836359 -1.53215 0.760057
        0.466029 -1.73961 0.426414
        -0.51449 -1.006 -1.7365
        -0.453014 -0.629853 0.458818
        0.283138 -0.939755 -1.2997
        -0.275501 -1.12638 -0.447156
        0.382835 -1.3515 0.741795
        0.163712 -1.38421 0.0100025
        -0.952943 -0.512844 0.724488
        0.454006 -0.371363 1.00391
        1.87559 0.275852 -0.571541
        -0.27979 0.874621 0.0110347
        -1.26544 0.153495 0.752967
        0.230686 0.9879 -0.195895
        -0.0519066 1.71105 0.0342921
        0.29951 0.515269 0.48101
        0.746282 0.45961 -0.332471
        0.335184 1.53153 -0.223053
        -0.480236 1.11106 -0.016275
        0.0639278 0.940125 -0.708199
        -0.27646 -0.0188416 -0.456037
        1.69463 0.322371 0.458885
        -0.338958 -0.382235 -0.807319
        0.759492 0.274001 -0.30102
        0.713116 -0.480331 1.50877
        0.387278 1.52953 0.629077
        -1.14804 1.09947 0.431778
        -0.982024 0.484071 -0.687934
        -1.1635 -0.254619 0.294819
        0.284438 0.807452 0.211138
        0.594934 1.88283 -0.0582608
        0.123516 -1.09711 -2.07588
        1.13083 0.858743 -0.106515
        0.788131 -0.184785 0.370921
        0.669932 0.632384 -1.15816
        -1.30355 0.734064 0.29371
        1.10946 1.50528 0.45696
        -0.0373602 0.692509 1.05007
        -1.31712 1.07996 1.17576
        -0.984332 1.25296 -0.334643
        0.27079 0.877063 0.0456658
        -0.533532 1.5621 0.889342
        -0.0297267 0.906201 -0.595931
        -0.228232 -0.159403 1.16038
        -1.07901 2.73585 0.131718
        0.791505 1.08874 0.356549
        0.482764 0.642834 -0.255464
        -0.476806 1.10492 -0.284898
        -0.897857 0.970667 1.16558
        -0.0479661 1.71267 -1.2441
        0.0332037 1.13251 1.26786
        0.283922 0.48877 0.00431151
        0.407461 1.62123 -0.0897652
        0.0188143 3.57827 -1.15099
        0.288969 0.456985 -1.18974
        0.0826454 0.813352 -1.49512
        -0.762169 0.272771 -0.222151
        -0.230204 1.57575 0.0311836
        0.536898 1.88306 0.310047
        -1.13354 1.10373 -0.882693
        0.0505446 0.808909 0.370387
        0.908434 1.70232 0.0250991
        -0.242227 2.01174 0.195383
        0.446214 1.7842 0.787865
        -0.181291 2.09102 0.320875
        -0.414813 0.504443 0.780795
        0.367668 1.20657 -0.347511
        -0.0414852 1.57846 -1.20458
        -0.329003 2.21876 -1.165
        -2.33232 0.0346403 0.134934
        0.460989 1.19895 -0.481566
        -0.397952 1.01505 0.841665
        -0.0404879 0.252036 1.65729
        0.125529 1.71996 0.742719
        -1.03797 0.624613 1.25554
        0.439295 1.53115 -0.408249
        -0.111736 1.24649 -0.609782
        0.108931 3.70419 -1.02045
        -0.37012 1.49841 0.526847
        -0.19995 1.71577 -0.198294
        1.01962 0.899125 -1.45776
        -0.114653 2.67929 -0.41436
        0.32478 1.20576 -1.28297
        1.01716 1.6578 1.29565
        -0.259313 0.993823 0.999547
        -0.0896565 1.18221 -0.41071
        -1.0775 1.42575 0.587289
        0.403987 2.82775 -0.0305273
        0.452386 0.573006 -0.155572
        -0.80762 0.249165 -0.659652
        0.586763 2.04981 -0.0996226
        -0.142766 2.54457 -0.358133
        0.091747 1.665 0.536528
        0.0791881 1.50949 -0.367438
        -0.996574 0.796012 0.517898
        0.514898 0.867787 0.310087
        -0.114031 0.303044 -0.753511
        0.38361 1.14076 0.175065
        -0.274922 1.32365 -0.596113
        -0.0595557 0.941566 -0.544972
        -0.612341 1.49877 -0.596371
        -1.42109 2.20715 0.261307
        0.324732 2.21257 -0.673537
        -0.534479 1.64589 -0.5813
        -1.15025 1.77162 0.196229
        -0.124262 1.91406 0.456334
        0.511973 2.4 -0.0790522
        -0.0495296 2.29414 -1.25571
        0.378701 0.480092 -0.233193
        -0.521879 1.75258 0.030038
        0.992378 1.86597 -0.00571535
        0.61197 -0.0352613 0.170692
        0.787287 0.509861 0.548976
        -0.0315057 -1.23239 -0.764776
        -0.853499 0.673581 -0.46454
        0.964838 1.2211 -0.772568
        -1.44421 1.24613 1.26679
        0.134651 1.57217 -0.711654
        0.912158 1.61292 1.18529
        0.290908 1.86845 0.0460564
        -0.621756 1.18715 0.318344
        -0.265282 2.09338 -0.284281
        -0.271316 0.194569 0.558164
        -0.0223974 1.32619 -0.985142
        -0.153024 0.838277 -0.651047
        0.00423649 0.593151 -0.288933
        -1.25092 1.60713 -2.37262
        -0.477545 2.23136 -2.11418
        -0.0494309 1.07689 0.50778
        -0.517692 0.841435 1.16266
        -0.4115 1.46897 0.164458
        0.288057 0.554261 -0.652282
        -2.00628 0.458182 1.00287
        0.692834 2.80542 1.01379
        0.399288 1.17398 -0.920619
        0.110935 1.54041 -0.134751
        -1.15494 1.55778 -8.05099e-05
        0.0998171 1.16329 -0.28694
        0.414266 1.81587 0.104472
        0.0956676 0.553217 -0.591031
        -0.151627 0.68776 -0.456893
        -0.114165 0.157164 0.298872
        -0.733037 0.65423 0.140691
        0.808366 0.232914 0.197427
        0.68036 1.32128 1.13614
        -0.876664 1.17397 0.211101
        0.372543 1.47753 -0.497555
        -0.0429561 1.60155 0.100289
        0.351842 2.14594 -0.646798
        -1.02616 2.3788 0.106003
        -0.559082 1.26327 -0.441123
        0.12591 0.148558 -0.230334
        0.667322 1.23825 0.231811
        -0.454291 1.77819 -0.786351
        -0.125792 0.0609185 -0.564658
        -0.30938 1.9085 0.0884674
        0.604418 1.94221 -0.971567
        0.640433 1.1364 -0.467402
        0.0011408 1.31093 -0.699763
        -0.107579 2.00084 -0.206512
        0.129821 0.91312 1.46204
        -0.196501 1.24159 1.51339
        -1.72069 0.512269 1.08057
        -0.184138 1.34326 -0.0775018
        0.867061 2.22937 -0.718535
        -0.460194 0.517416 0.543817
        -0.0762815 1.01398 1.02223
        -1.47256 1.11246 -0.512931
        -0.626182 0.876503 1.07521
        -0.569694 2.62482 0.683719
        0.423829 0.417214 -0.581483
        -0.393069 1.22463 -0.271618
        -0.645971 0.709196 0.653705
        -1.36679 1.03674 0.724342
        -0.719655 1.74533 -0.0853957
        -0.0992998 0.985517 0.754802
        -0.206981 1.31639 -0.336847
        1.67902 0.693975 0.210256
        -0.545596 0.00803589 -0.217563
        -0.468527 2.22823 -0.239227
        0.532437 1.06599 1.45746
        0.388326 0.39068 -0.383951
        -0.652531 1.5531 1.23563
        0.0852982 1.12121 -0.876231
        0.762074 -0.0881438 0.237596
        -0.841754 0.813003 -0.308914
        -0.604428 1.72977 0.154491
        0.485859 -0.925803 0.524408
        -0.645545 -1.59248 -0.441097
        -0.112206 -1.10522 -0.501499
        -0.910298 -3.02551 0.859641
        0.136779 -1.9266 0.444802
        -0.230123 -1.30652 -0.302671
        0.967044 0.154852 -0.550809
        0.944081 -1.89208 0.29618
        0.336978 -0.999135 -0.219537
        0.411329 -1.24473 -0.822118
        -0.84513 -2.56916 0.658103
        -0.0149786 -1.41477 -0.844194
        -0.261493 -1.9221 -0.0138493
        0.775156 -1.16144 -0.0652663
        -1.53195 -0.690482 0.282446
        0.586767 -0.896314 0.300993
        0.216818 -2.27386 1.29254
        -1.07285 -0.744895 0.786826
        -1.29493 -0.638744 0.519257
        -0.79365 -1.88288 1.73583
        0.778712 -2.45343 1.33188
        0.117559 -0.90222 0.0508574
        -1.04303 -1.26889 1.04265
        0.0258443 -1.9336 -0.39316
        0.870086 -1.57102 -0.34244
        -0.184904 -2.31012 0.0545864
        0.0720236 -1.27194 -1.42869
        -0.605288 -0.0501235 -0.766466
        -0.965415 -1.70305 0.0514026
        -0.327673 -1.18015 -0.038846
        0.221431 -1.20957 0.300853
        -0.0503847 -0.934174 0.904137
        -0.600424 -1.40597 0.949387
        -0.383068 -0.990976 -0.966765
        0.112478 -1.46384 -0.666845
        0.167449 -1.16919 0.818417
        -0.853296 -1.42563 -0.276727
        -0.630658 -1.0811 -0.992364
        0.975375 -2.72161 -0.321875
        0.479436 -1.50889 0.63055
        0.51849 -0.82978 -0.90022
        -1.02464 -2.25466 -0.118768
        -0.185201 -3.33074 1.80509
        -0.0259859 -2.399 -0.317715
        0.0459378 -1.74615 0.71066
        -0.985153 -0.165484 0.508604
        0.360825 -0.975751 0.407144
        0.752696 -1.89274 0.0869962
        -0.211188 -1.87729 0.169632
        -0.0471867 -2.54723 0.333858
        -0.326006 -1.59139 0.456597
        -1.43157 -2.09292 0.0256151
        -0.829102 -1.49446 -0.499982
        0.7311 -1.53101 -0.540629
        -0.278586 -1.21456 -0.0519785
        0.345598 -1.32328 0.406058
        -0.357454 -2.36612 1.20717
        0.375556 -1.59309 0.222226
        -0.779169 -2.38167 0.110776
        1.6563 -1.40837 -0.432213
        -0.958781 -1.52902 0.514519
        1.71015 -1.668 0.689607
        -0.355433 -1.4675 0.407891
        0.910729 -2.4577 0.288039
        0.555234 -0.641672 -0.207769
        -0.98944 -1.9908 -0.264784
        0.132235 -0.392319 -1.27396
        -0.0452154 -2.17217 0.0282407
        0.409799 -1.79825 0.475382
        0.272458 -1.29248 -0.227301
        -0.0345855 0.324598 0.603681
        -1.04453 -0.855259 -0.368232
        -0.102791 -2.06876 -0.641954
        -0.130417 -1.22421 -0.733734
        0.559831 1.36753 -0.239307
        -0.0638684 -0.935862 -0.70008
        -0.598554 -1.01899 -0.308589
        -0.0542829 -1.25269 -0.139084
        0.0306816 -2.47646 -0.286508
        -0.301888 -0.10382 -0.396849
        0.626097 -0.35665 -0.13149
        -0.276085 -1.75588 0.055249
        -0.359591 -0.797816 0.467938
        0.910839 -1.97082 0.595798
        -0.301788 -0.577591 -0.770982
        -0.883962 -0.723227 -0.35397
        1.53213 -2.34421 0.620497
        -0.206703 -2.46454 0.292767
        0.175375 -2.43772 0.0941269
        -0.586261 -1.53922 0.056138
        -2.38734 -1.7784 0.0543184
        0.272067 -1.0191 0.0176915
        0.0674479 -2.23907 -0.60071
        0.494702 -2.23139 -1.46334
        1.00773 -0.377664 -0.292951