<?xml version="1.0" encoding="UTF-8" standalone="no" ?>
<VTKFile byte_order="LittleEndian" type="UnstructuredGrid" version="0.1">
  <UnstructuredGrid>
    <Piece NumberOfCells="0" NumberOfPoints="1764">
      <PointData>
        <DataArray Name="velocities" NumberOfComponents="3" format="ascii" type="Float32">
        -0.345186 -1.34132 -0.65976
        0.033078 -2.28081 1.73229
        -1.03995 -1.22477 -0.451675
        -1.1003 -1.00988 1.00989
        0.968945 -0.801444 -0.0297695
        -1.08136 -2.5469 0.378293
        -0.160614 -2.00384 -0.594767
        0.142064 -0.473437 -0.0370642
        -0.309176 -0.359772 0.245392
        -0.335464 -1.68432 0.296673
        0.361997 -0.613119 -0.410382
        0.241453 -1.00285 0.460329
        0.233724 -2.76408 -0.0172807
        0.0778256 -1.13781 -0.970987
        -0.451207 -1.68212 1.50198
        0.239384 -0.49191 -0.50817
        0.960643 -0.523358 0.0323379
        -1.44214 -0.874636 -0.714326
        0.0798258 -0.648409 0.754663
        -0.19194 -1.58602 0.726613
        0.883521 -1.45774 1.07192
        -0.0814436 -2.6218 -0.219748
        0.292706 -0.966229 -0.0817218
        -0.433214 -1.09803 -0.157978
        -1.16191 -0.422965 0.196162
        0.973994 -2.16931 -0.385622
        -0.0955985 -1.5128 0.927984
        0.173541 -0.991088 0.748855
        -0.0469992 -1.91355 1.0699
        0.945529 -1.31579 0.0173189
        0.330657 -0.537114 -0.804217
        0.713548 -1.2523 -0.368587
        0.64098 -1.93441 -0.188371
        0.544204 -2.12076 -1.24403
        -0.0287788 -0.612578 0.763681
        0.577125 -1.96874 -0.474109
        -0.726369 -0.831087 -1.20397
        0.654485 -1.10672 1.00417
        -0.239255 -2.92422 0.44854
        0.28421 -2.2142 -0.204426
        -0.0292178 -3.02499 0.0218571
        0.923078 -1.46793 1.41986
        0.668512 -0.141852 -0.511331
        -0.398012 -1.73115 0.512239
        -0.290501 -1.41641 -0.928131
        0.682199 -1.6787 -0.511833
        -0.0709938 -1.6088 -0.265368
        0.3405 -1.58377 -0.647708
        0.743474 -1.55531 0.0472336
        -0.013406 -1.74032 -0.283286
        -0.367595 -0.107755 -0.760471
        0.130867 -1.16711 -1.1193
        0.849711 -1.47298 0.608689
        0.203404 -2.63685 0.112449
        0.889789 -1.32204 0.789562
        0.50349 -0.851831 0.00979492
        0.395684 -2.59359 -0.462807
        -0.327657 -0.957692 1.10888
        -1.10923 -1.104 -0.331646
        0.455874 -2.86386 -0.116418
        0.291585 -1.96303 -0.43642
        0.673556 -1.8749 -0.851955
        0.197795 0.301922 -0.334412
        0.0934971 -1.16402 1.52298
        1.09718 -1.64269 0.719448
        -0.00502637 -0.31267 0.666663
        0.229583 -0.65767 0.0419936
        0.381235 -0.0289102 0.510114
        0.0304596 -1.96191 -0.0749161
        -0.00964684 0.389412 -0.530427
        0.371288 -0.613628 1.75479
        -0.00174122 0.431755 0.164417
        0.391082 -1.15576 0.199704
        0.0537041 -1.76112 -0.13696
        0.25783 -1.2488 -0.954347
        0.640304 -2.36322 0.527993
        0.637338 -0.813499 0.354
        0.172045 -2.6075 0.442419
        -0.50022 -0.976534 -0.721806
        1.16424 -1.79308 0.529496
        0.143179 0.459353 0.289638
        0.24854 -1.45327 0.324525
        -0.370185 -1.18552 0.0903991
        0.411949 -0.412178 -0.0380135
        0.875261 -1.25342 0.428675
        2.39784 -1.80479 -0.777396
        0.514908 -1.49915 0.197255
        -0.43818 -1.8304 0.211329
        -0.156864 -0.724782 0.514806
        0.375265 -0.567862 -0.433961
        -0.458174 -0.44926 0.937236
        0.251966 -0.79644 1.58459
        0.0726174 -1.74313 0.823522
        0.846719 -1.61124 0.307534
        -0.930183 -0.540994 0.0523594
        -0.122926 -1.7099 0.241565
        0.356606 -0.895798 -0.979179
        -0.189072 -1.29636 0.472389
        0.313396 -0.431043 -0.475503
        -1.11253 -1.2124 -0.3117
        1.12393 -0.602389 0.0963369
        1.12581 -1.035 0.259125
        -0.594296 -0.754288 -0.29361
        1.19485 -0.810578 -0.090753
        0.45786 -2.48086 -0.427898
        0.028972 -0.930633 2.01859
        -1.36186 -0.542796 -0.0240652
        -1.20039 -2.60222 0.0358962
        0.017059 -2.10302 -0.0308
        0.252245 -0.757413 1.13901
        -0.635838 0.539609 1.15587
        -0.064653 -0.201861 -0.939173
        -0.699247 -0.706005 0.06843
        0.658073 -1.53547 -1.4382
        -0.145774 -1.20324 0.0103032
        0.378298 -1.71576 1.81431
        -0.213829 -2.04915 -0.575164
        -0.544777 0.0356226 -0.43263
        -0.857375 -1.64721 -0.257907
        1.59175 -1.14194 0.310471
        -0.719421 -0.804471 -0.391151
        0.806484 -1.33789 0.460901
        0.6692 -1.69223 0.66791
        0.131378 -0.330896 0.522334
        -0.946349 -2.05642 0.350692
        0.1639 -1.34527 -0.481824
        -0.465609 -0.466082 -0.171906
        -0.378484 -1.5266 0.0379515
        -0.489133 -1.2605 -0.729193
        0.695904 0.167302 -0.199924
        1.72959 -1.25064 0.434879
        0.764729 -1.3353 -0.0965631
        0.418868 -0.975023 -1.37437
        -0.232645 -2.75653 -0.673339
        -0.0854245 -1.67243 0.519681
        -0.344108 -0.899525 -0.0323408
        -1.26297 -1.62991 -1.52775
        -0.938927 -2.84931 -0.862237
        -0.333835 -0.0286558 0.89342
        -0.36354 -2.27288 0.314143
        0.209948 -0.867227 -0.2957
        -0.192035 -0.972943 0.396848
        -0.553344 -0.912527 -1.09765
        0.288873 -1.02573 -1.16042
        0.72489 -2.23089 -0.111967
        0.894878 -2.31963 -1.00884
        0.808438 -0.960392 0.366896
        0.183233 -1.48039 0.028555
        0.0203057 -0.664625 0.871976
        -0.199087 -0.868877 -1.01532
        0.116579 -0.239459 0.63818
        -0.495689 -1.10711 -0.264375
        -0.190128 -0.537954 0.310669
        -0.214685 -0.961831 -0.508939
        0.0543246 -0.0812063 -0.75345
        -1.03767 -1.33343 -0.322916
        -0.503415 -1.51284 -0.218182
        1.17339 -1.16196 -0.271543
        0.864066 -0.598204 1.34376
        -0.577409 -1.42544 -0.293112
        -0.189721 -0.681163 0.504793
        -0.495336 -1.32925 -0.817465
        -0.0901902 -0.541261 -0.548597
        1.85328 0.112526 -1.58855
        0.143026 -1.28211 -0.153051
        -0.656153 -0.507858 0.369741
        -0.250237 0.842365 0.2093
        -0.374429 -2.04243 -0.158062
        -1.03826 0.673261 -1.14881
        -0.742323 -1.00699 -0.565881
        -1.05787 0.49732 0.400028
        -0.881244 -0.306528 1.6152
        -0.534205 0.0990177 -0.543662
        0.490278 -1.46321 0.387086
        -0.330275 -1.45851 0.35681
        -0.324053 -1.20112 0.879746
        -0.497724 -0.403215 0.290692
        -0.548703 0.286741 -1.5684
        0.281228 -1.62322 -1.11849
        -1.36156 -0.619259 1.45649
        -0.846362 -1.8074 0.918462
        -0.336867 -1.78083 -0.0844155
        -2.15715 -2.5228 0.147326
        -0.463154 -1.42287 -1.63502
        0.751539 0.21953 -0.209785
        -0.658071 -0.353851 0.16798
        0.115335 -2.29811 0.825796
        -0.506704 0.288095 -0.892521
        0.784757 -0.321771 -0.100401
        0.752038 -0.39975 0.553249
        -0.0979713 1.32048 -0.00937968
        -0.366843 0.0978903 1.17279
        0.974289 0.835684 0.282148
        -0.220588 0.015101 0.101684
        1.91479 -0.228076 1.00721
        0.280435 0.229484 -1.70013
        0.210481 1.3245 2.20802
        -0.416134 0.685577 -0.815368
        0.23016 0.331097 0.318717
        -1.11 -0.319655 0.736521
        -1.53903 1.66364 0.196955
        0.768576 -0.0143246 -0.0663621
        -1.43359 1.12037 -0.530416
        0.90549 -0.586761 0.404564
        0.587609 0.243785 0.460851
        0.815973 2.10584 -1.51116
        0.361134 0.477285 0.406348
        0.778027 0.256285 -0.063879
        0.419968 -0.0480826 0.743517
        1.09791 1.61726 0.154322
        -0.777754 1.70451 -0.0553772
        1.50198 0.759313 -0.144723
        -0.720331 1.39472 -0.371099
        -0.288789 2.01756 -0.496959
        -0.533023 1.89113 -0.372732
        0.33465 1.53446 -0.548011
        -0.855587 2.61384 -0.0769063
        0.350639 1.37695 -0.371837
        0.0259135 2.44795 0.234931
        -0.318609 1.36013 1.08245
        0.658198 1.5982 -0.268684
        -0.282662 2.31369 0.398542
        0.438928 0.793875 -0.923937
        0.286907 1.9784 -0.200949
        0.186097 2.58866 0.28463
        0.246521 0.949052 1.39958
        -1.22904 1.04522 1.04718
        -0.262246 2.55281 0.0275419
        -0.27361 2.17842 -0.0819523
        0.288878 1.52497 0.649982
        -0.322566 1.6117 0.0659216
        -0.23502 0.987601 -1.80626
        -0.119104 2.916 -1.15917
        0.112666 1.77184 0.652162
        -0.761166 1.69494 0.292152
        0.117065 1.17525 -0.559807
        1.24869 1.46835 1.04714
        0.442199 0.63152 -0.463817
        -0.720758 1.96138 0.254078
        -0.557834 1.1091 -0.0329903
        -0.365865 1.47076 1.01546
        -0.936321 0.587812 -0.529648
        -0.0832465 2.28621 -0.461907
        0.0255936 1.44533 1.04151
        -0.387975 1.74065 0.0177683
        0.321499 1.21182 -0.0857616
        0.64709 1.43076 0.063723
        -1.90789 0.458766 0.0804467
        0.740998 0.112936 0.828793
        0.153994 -0.283834 1.33925
        -1.08599 0.404207 0.649177
        0.310655 2.49439 -0.976067
        -0.326184 0.630523 -0.148121
        -0.443148 0.684653 0.332297
        0.0127783 0.96308 -0.522931
        -1.05223 1.23628 0.227518
        -0.07085 0.493375 0.996132
        0.250097 0.876005 -0.947991
        0.240423 1.78083 -0.214651
        0.266805 2.5353 -0.0108391
        1.31285 2.85184 0.0924242
        -0.370223 2.05192 0.975117
        0.164619 0.851371 -0.969749
        -0.0904551 1.98865 -0.820815
        0.837072 0.932803 1.044
        -0.468246 0.573007 -2.14502
        -0.407805 1.04769 0.499686
        -0.407807 2.11794 -0.889032
        0.558554 1.32144 -0.25429
        -0.832686 2.13663 -1.19103
        0.207711 0.436485 1.57095
        -0.591793 2.15888 -1.13103
        0.279226 0.77542 -0.93959
        -0.893865 1.4408 -0.181455
        0.314785 1.52557 -0.754685
        -0.130908 0.602405 0.157959
        -0.220265 1.38932 0.594684
        -0.621422 3.0063 0.723627
        0.62691 0.638135 0.611004
        1.4871 0.978441 -0.491991
        0.304334 1.11134 -0.194489
        -0.409434 1.27329 -1.06875
        0.230001 2.29722 0.422831
        -0.310332 1.07032 -0.71516
        -0.427883 1.31822 -0.433161
        -0.271994 2.09283 1.12812
        0.651277 1.01342 -1.19672
        -0.422348 2.24585 -0.647112
        -0.568773 1.2598 0.551312
        -1.10244 1.81753 -0.801942
        -0.912157 2.14282 0.0285039
        -0.470272 0.189398 -0.174915
        -0.12727 0.375797 -0.0561835
        -0.0622438 0.847832 -0.361305
        0.680295 -0.527078 0.300712
        0.671764 1.57066 0.568022
        0.206107 0.180538 -0.797914
        -0.893688 0.885959 -0.0888328
        0.62848 0.657146 -0.121726
        0.05412 1.8312 0.00421783
        -1.19016 1.71411 0.563066
        -0.425881 0.691512 -0.600264
        0.0308296 0.701495 -0.200891
        -0.464691 1.37574 0.378817
        -0.49688 0.664137 1.20676
        -1.35765 1.4482 0.583668
        0.811859 1.91503 1.91864
        -0.217105 0.0897714 1.4336
        -1.29912 1.63512 -0.215457
        -0.623881 1.07907 0.550911
        0.65722 1.87081 0.122833
        -1.09819 2.18602 1.3956
        1.00981 1.56664 0.051999
        -0.482599 1.63575 -1.11802
        0.969773 2.54402 -0.0519125
        -0.491255 1.54136 0.0569762
        -0.408938 1.12648 0.639541
        0.800972 0.856998 1.26711
        -1.2491 1.70048 0.302341
        -0.407054 2.21996 -0.485707
        0.114407 0.335366 -0.785878
        -0.492823 2.26194 0.143485
        -0.885187 1.30947 0.333602
        0.664974 0.831696 0.468104
        -0.516267 1.29576 -0.640453
        0.148884 1.51788 -0.586451
        -0.844719 0.708636 -0.353313
        -1.50088 1.75156 0.14771
        1.31873 1.08137 -0.10697
        -1.62042 0.931246 0.680093
        -0.672264 1.36749 0.214968
        0.347276 2.30321 0.365915
        0.211103 1.57711 -1.62423
        -0.627155 1.54284 -0.529394
        0.102899 0.285944 -0.414452
        -0.5108 -0.594734 -0.125755
        0.0509251 2.22911 -0.437309
        -0.393065 1.72575 0.380267
        0.552655 0.795227 0.132436
        0.30452 2.09865 -0.805223
        -0.100677 1.52659 -0.105888
        -0.563657 1.69283 0.127646
        0.276081 2.1146 -0.643057
        -0.715945 -0.204394 -0.382755
        0.00805571 0.77513 -1.23123
        -0.306734 0.898497 -0.535238
        0.440321 1.0702 0.0155566
        -0.419199 -0.00674766 -0.0146966
        -0.373593 0.929582 -0.513431
        0.68933 1.15564 0.898613
        -0.110913 1.84256 0.272251
        0.47642 1.75407 0.964935
        1.12697 0.385391 -0.854352
        1.10793 1.31203 0.348074
        -0.845509 2.17452 0.541457
        0.60087 1.41686 -0.0444345
        1.21231 0.946835 0.167917
        1.70516 1.34111 -0.276825
        -0.725888 0.662876 -1.15865
        -0.307604 0.980232 1.0977
        -0.720582 1.39144 -0.0930459
        -1.03896 1.31837 0.237041
        -0.538013 1.51989 0.271143
        0.866236 2.37087 0.529858
        1.28656 0.421215 0.0669084
        0.408294 1.0441 -1.01328
        0.810892 1.02403 -1.43077
        -0.00718803 0.74284 -0.551022
        0.155179 1.86351 -1.40305
        -0.345117 1.52052 -2.06541
        0.428088 0.980093 1.48445
        -0.644352 -0.269377 -0.677334
        -0.485138 -1.5977 1.20016
        0.474586 -0.560585 -0.102873
        -0.117257 -0.993927 -0.502367
        -0.722567 -0.744185 1.88561
        0.179778 -1.35363 0.379051
        1.08799 -0.583533 -0.242253
        -0.0119597 -1.40372 0.63663
        1.02832 -0.622446 0.468324
        -1.15925 -1.35096 -0.0108006
        -0.873978 -1.19463 -1.47839
        -1.12917 -1.46114 0.223202
        1.58246 -0.142764 -1.38394
        0.753762 -0.191522 -0.675571
        -0.220214 -1.16755 0.5839
        0.706127 -3.66814 -1.3268
        1.59372 -0.950937 0.287525
        0.20298 -0.260778 0.384018
        1.03648 -0.485216 0.679366
        -1.1962 -0.728024 -0.139311
        -0.548115 -1.82953 -0.373543
        0.060238 -1.34731 -1.75928
        -0.113946 -1.23195 -0.702408
        0.377894 -1.09682 -1.76913
        -0.0725522 -0.773518 -0.675061
        -1.70012 -1.50663 -0.0610224
        -0.646731 -2.15696 -0.191713
        -0.178628 -0.959424 0.0733118
        -1.79002 -1.34527 -0.073509
        -0.875549 -0.972342 0.819017
        -0.314756 -1.55896 -0.48135
        0.599394 -2.06825 0.693796
        -1.26514 -1.73219 -0.145606
        0.496409 -1.61206 0.737989
        0.843735 -1.3433 -1.22738
        -1.0513 -1.67296 0.549848
        -0.319761 -1.21634 0.465039
        -0.54224 -1.72329 1.30141
        -0.185898 -0.782761 -1.63309
        -0.605105 -1.39595 1.29713
        0.530871 -1.21669 -0.160386
        0.935231 -1.26619 -0.565254
        -0.847102 -2.74941 -1.11276
        -0.667576 -0.586477 -1.8474
        -0.696019 -0.910267 -0.638558
        0.445059 -0.60621 0.873455
        -0.683735 -2.78166 -1.67351
        -0.638096 -1.73783 -0.362402
        0.50004 -1.119 -1.41023
        -0.417503 -1.10172 0.00354024
        1.17578 -1.73968 -0.00577096
        0.249678 -1.1459 0.431828
        -0.0932454 -0.298756 -0.628708
        -0.179856 -2.06499 -0.425705
        0.462633 -1.53333 -0.377071
        -0.190306 -0.682208 0.154401
        -0.713167 -1.67235 -0.348689
        -0.391503 -0.112688 -0.39045
        -0.600835 -0.185879 -1.06548
        1.34707 -1.36003 -0.891728
        0.435377 -1.68392 1.08987
        -0.0892633 -1.04772 -1.10182
        0.146095 -1.59725 -0.427552
        0.146862 -1.61102 -0.711486
        0.220645 -1.32486 1.14454
        -0.995221 -0.411714 -0.561671
        0.26803 0.544026 1.09326
        -0.493923 -4.18423 0.281574
        -2.29191 -0.70641 0.118207
        -0.0439578 0.0662091 0.0248961
        0.42308 -2.35952 0.319196
        1.05924 -0.568745 -1.71757
        -1.18239 -1.05559 0.578819
        -1.62637 -1.14541 0.262874
        -1.51075 -0.15499 0.228934
        0.620491 -2.64964 -0.332614
        -0.345621 -1.05778 0.931374
        -1.55311 0.481964 -0.307853
        0.398651 -1.16567 -0.391583
        0.0649051 -2.8089 -0.352067
        0.416247 -0.385974 0.598251
        -0.143463 -0.795177 0.898667
        0.640928 -1.28765 1.05773
        0.520285 -1.51879 0.0634928
        0.844646 -1.1171 -0.838261
        0.746669 -3.14457 0.111764
        -1.009 -1.7992 -0.750087
        -0.515938 -2.40779 -0.0916222
        0.624931 -0.671125 -0.19583
        0.0694149 -0.779048 -0.927541
        0.291129 -2.4828 0.536456
        1.549 -1.86759 0.747838
        0.704868 -1.45894 -0.289637
        0.566255 -1.32714 -0.326564
        1.00022 0.225533 -0.372226
        0.455469 -0.0707294 0.306302
        -1.23137 -0.576688 -0.996941
        0.263485 -0.586076 0.193421
        -1.1923 -0.410841 -1.04041
        -0.153277 -2.35173 -0.363869
        0.150045 -2.48872 0.334707
        0.408974 -0.935583 -0.969611
        0.608705 -0.907229 0.450191
        0.509228 -1.68588 -0.281756
        0.428008 -0.811585 -0.668039
        0.225697 -0.701455 0.164248
        1.7747 -0.242114 1.18705
        0.829953 -1.7802 -0.65322
        0.662148 0.635569 0.13823
        0.377171 -1.49118 -0.714557
        -1.54638 -1.7502 -1.08808
        0.541833 -1.25012 1.20891
        0.766611 -2.88304 -0.151885
        1.66801 -0.964325 0.481815
        -0.0149516 -1.33065 -0.744356
        0.278695 -0.994767 0.0497924
        -0.913797 -0.690601 -0.124973
        0.100941 -0.895003 -1.52062
        -0.259413 -0.0497863 0.0128294
        1.03789 -1.37035 -1.27934
        0.562529 -1.2441 -1.40431
        0.103976 -1.23883 -0.0834111
        -0.61121 -1.18107 1.13009
        0.383838 -2.17279 -0.280791
        0.0550036 -2.4094 -0.776578
        -0.148345 -1.24222 -0.17373
        -0.922116 -0.719026 -0.425912
        -0.523863 -2.62352 -0.0459509
        -0.252979 -1.99113 -2.32676
        0.755956 -1.76596 -0.411655
        0.683225 -1.537 -0.169673
        0.505512 -1.73453 0.487099
        0.239079 -1.16424 0.740334
        -0.283537 -0.914993 -1.12386
        1.82496 -0.970266 2.36604
        0.00199853 -2.44384 -0.324805
        -0.693891 -1.94721 -0.489901
        -1.27634 -1.08203 -0.337279
        1.1505 -1.39212 -0.237457
        -0.235553 -1.05062 -0.272235
        0.454838 -1.99611 1.39416
        -0.194911 -1.4598 -0.186213
        0.19042 -2.04107 0.184502
        0.968791 -1.22808 0.248107
        1.26682 -1.59428 0.288688
        -0.38547 -0.730519 -0.566514
        -0.165094 -2.18577 -0.0642015
        0.533954 -1.33343 -0.708448
        0.954024 -1.56448 0.182241
        1.04247 -1.23594 0.210555
        -0.448013 -0.582818 -0.27761
        1.46136 -0.691125 0.933977
        -0.259285 -0.903561 -1.16868
        0.213557 -0.166974 0.466552
        -0.916547 -1.24386 0.557656
        -0.819141 -0.79293 -0.925747
        -0.932187 -0.454469 1.61828
        -1.05163 -2.37439 0.970466
        0.129127 0.224961 0.310884
        0.112201 -0.271733 -0.75354
        0.790928 -1.73389 0.394609
        -0.412093 -1.21641 1.08903
        0.491681 -1.0387 -0.563655
        -1.5059 -1.23616 1.14379
        0.582751 -1.47906 0.275913
        0.060741 -0.917601 -0.656805
        0.104944 0.060943 -0.498027
        -0.153059 -1.33011 -0.158639
        -0.515791 -1.94751 0.0367341
        -0.355768 -1.46939 -0.225832
        -0.412775 -0.733685 -0.145829
        -0.0777556 -2.39362 -1.26824
        -0.181203 -1.8457 0.1473
        0.469578 -0.929793 -0.406265
        0.49223 -1.37837 -0.34836
        -0.541737 -0.914131 -0.241249
        -0.482668 -1.30377 -0.670202
        0.539563 -1.99983 -0.126741
        -0.927906 -1.23945 -0.0877283
        -0.749846 -1.12684 0.164062
        -0.40618 -1.23225 -0.953961
        -0.151045 -1.7157 -0.0754252
        -0.961298 -1.14256 -0.0739316
        0.24334 -2.18959 0.553513
        -0.541758 -2.29002 0.373398
        -1.42711 -0.496303 0.40126
        -0.383278 -1.29331 -0.0568046
        -0.892565 -0.825027 -0.598233
        -0.126907 -2.18917 0.0941519
        0.294263 -1.8713 0.485995
        -0.277686 -0.976773 -1.0711
        1.20087 -1.28216 0.0403792
        0.374494 0.307781 0.468425
        1.87531 0.274436 -0.574851
        -0.983908 -0.733881 0.603828
        0.454916 -0.370146 1.00316
        0.0373486 0.911558 0.0375359
        -1.56227 0.22231 0.697333
        1.29591 0.950484 0.116802
        0.431592 0.00940712 -0.433585
        0.919406 0.93525 0.866952
        -0.168134 -0.0197241 0.434685
        -0.181522 1.68126 0.599357
        0.468718 0.801292 -0.866844
        0.737189 0.552403 -0.239893
        -0.820061 0.265606 1.15212
        -0.0754746 1.65449 -0.679856
        -0.676008 1.18239 -0.369522
        -0.796243 -0.746156 -0.813937
        0.787391 0.908768 -1.06994
        -0.20849 -0.61208 -0.641352
        1.28765 0.285875 0.201446
        -0.442111 1.04818 -0.17203
        0.184713 1.06426 0.000477417
        0.689397 1.41283 -0.0902622
        -0.282086 1.12898 -0.245706
        -0.435584 -0.366592 -0.0298131
        0.798366 0.997646 -0.789096
        0.35184 1.82622 0.224626
        0.249843 0.685285 2.14845
        1.09254 1.69408 1.02501
        -1.3769 0.561174 -0.503689
        -0.181054 0.853059 -0.628664
        0.0863254 0.719622 -0.180981
        -0.0458245 0.778128 0.0560144
        -0.0930028 0.519585 0.933084
        0.259909 -0.363121 1.33998
        -0.75482 2.31261 0.43226
        -0.0918884 1.2841 0.528058
        0.045665 1.90096 0.500282
        -0.546961 1.96036 0.662755
        -1.21424 2.78231 1.36593
        -0.144093 1.44232 0.347589
        -0.627402 0.492037 1.70416
        0.532326 1.784 -0.0340461
        0.88238 0.58544 -0.0721076
        -1.32979 2.07368 0.752388
        1.52325 1.20462 -0.352983
        -0.177788 0.978839 -1.00793
        -0.171257 1.33507 -0.0889998
        0.452212 2.23587 0.397457
        -0.597639 0.802058 0.713604
        0.294352 0.647613 1.00402
        0.670512 1.79885 0.0839082
        -0.0104628 1.743 0.498745
        -0.484767 2.41356 -0.426422
        1.02639 2.08545 0.512935
        -1.2369 1.16452 -0.173967
        -0.449435 1.96425 1.48576
        -1.19836 0.953103 1.32665
        -0.370366 0.749411 -0.486431
        0.175875 1.36759 -0.268409
        -0.928234 1.73537 -0.161925
        0.740626 0.58132 0.467335
        0.790622 0.823983 -0.373968
        -0.29337 1.46166 -0.510476
        0.24145 0.885463 -0.491613
        0.0626221 1.40496 1.64774
        0.26755 2.34406 -0.434522
        0.368338 1.99743 0.417889
        0.726211 1.23516 0.124008
        -1.45578 1.8255 -0.169448
        -0.181384 1.30139 0.711417
        0.302833 2.54467 -0.112202
        -0.766854 1.1664 -0.43704
        -1.00799 0.819379 0.280321
        -0.671107 1.75756 1.12247
        0.792458 0.361729 -1.04186
        -0.0900034 0.92333 -0.43027
        0.10057 1.28781 -0.160178
        0.844176 1.5213 -0.78977
        0.112635 1.92789 0.561007
        0.896734 0.558751 -1.4113
        0.822967 1.11483 -0.473993
        -1.2725 0.406782 -0.315071
        -0.0873029 0.901573 0.635951
        -0.195477 2.04708 0.943441
        -0.837355 2.07201 -0.834979
        1.1981 1.24695 -0.728183
        0.490718 2.25422 0.518498
        1.44986 1.26122 -0.268732
        0.660648 1.16832 -0.42254
        -0.562067 1.89317 0.684336
        0.182745 -0.108626 1.20472
        -0.347222 -0.202846 0.0361834
        -1.44942 1.11635 -0.0659452
        -0.97608 1.34501 -0.747501
        -1.37718 0.99437 0.149587
        -0.778038 0.372387 0.177495
        1.1178 -0.663791 -0.438997
        1.44636 1.3494 0.669832
        -0.654263 1.36051 0.854427
        -0.957725 1.4352 0.48583
        1.88302 2.77976 -1.48888
        0.267689 0.798964 0.998937
        0.812449 1.10159 -0.795333
        -0.946513 2.83665 1.8667
        0.073558 3.22198 0.892587
        0.314232 2.87861 -1.02797
        0.238287 1.97411 -0.850562
        0.00159764 0.510426 -0.305989
        1.0379 -0.2013 -0.604347
        -0.433484 1.48002 -0.117052
        -0.188527 0.654222 0.277665
        -0.899976 1.30858 -0.467229
        -0.367072 1.29673 0.61455
        0.202126 0.936567 0.169292
        0.435294 1.24678 0.0371652
        0.292824 1.91616 0.343019
        -0.482658 0.660913 0.217385
        -1.07277 0.418819 -0.0477959
        -0.31088 1.43282 -0.0365453
        0.0953024 1.61868 1.10121
        -0.486923 1.44677 -0.228759
        0.303114 1.18122 -0.189069
        -0.828456 0.601213 0.836149
        0.0197093 1.93459 0.480862
        -1.40484 0.404006 -0.744191
        -1.48847 0.531185 0.467462
        -0.468444 1.93547 1.261
        -0.35172 1.53971 0.0288847
        -0.0159798 1.07009 -0.270154
        1.01708 1.27606 -0.948836
        -0.454155 1.3148 0.112646
        -0.1713 1.48821 -0.16899
        0.511034 1.59383 -0.784689
        -0.765028 0.635963 0.56581
        0.959971 0.818474 -0.85371
        0.754828 0.394551 -0.270072
        -0.025896 2.85641 0.485129
        -0.180722 1.98459 0.233432
        -0.137395 2.84072 0.612198
        0.190843 0.763842 -0.599305
        -0.726022 0.996614 0.217714
        0.272492 1.16823 1.50368
        1.51685 0.586399 1.13078
        1.34164 -0.0722033 -0.758222
        0.204701 1.28903 -0.210015
        -1.26949 -0.0659301 1.37498
        -1.11414 1.54674 -1.23995
        -0.378407 1.70898 -0.216832
        0.424773 1.80695 -0.459788
        -0.804469 1.38594 -0.299196
        -0.274501 1.31887 0.343212
        0.88495 1.35536 -0.783673
        0.276725 0.900287 -1.51274
        -0.292042 0.28046 0.665418
        0.493355 0.893822 0.59588
        -0.67878 0.760355 0.742778
        -0.828836 1.22775 0.160642
        0.693134 1.51325 -0.413524
        -2.03533 1.35282 -0.126076
        0.10243 0.38334 -0.207255
        0.497418 0.998104 -0.33938
        0.830464 0.569282 -0.860209
        0.29913 1.32989 1.22991
        -0.435215 0.970346 0.360263
        -0.864731 0.716046 -1.19267
        0.0761221 1.72194 0.579222
        0.661576 1.7331 0.248443
        0.265862 1.10654 -0.270756
        -0.15922 0.949912 0.0139938
        1.38437 1.3795 0.914226
        0.770129 1.77891 -0.0785331
        0.368728 0.66176 0.131257
        -0.603339 0.496113 0.739515
        0.735105 1.70926 0.32649
        -0.583876 0.504399 -0.787482
        -1.4185 2.91305 0.453682
        0.0982536 1.53807 -0.240464
        -0.333564 1.09413 -0.309781
        0.781864 1.15025 0.327469
        -1.14427 1.21478 -0.136735
        -0.573036 1.57933 0.5622
        0.413263 0.361944 -0.11374
        -0.843898 1.56089 -0.188389
        -0.253451 -1.58731 0.110841
        0.902966 -1.45131 1.5003
        0.217917 -2.27602 1.18702
        -0.137252 -0.926428 0.687349
        0.469973 -1.78479 -0.482255
        0.868011 -1.8369 0.552568
        -0.656493 -0.627745 -0.341691
        -0.927701 -1.16636 0.125739
        -1.0337 -2.30675 -0.0896351
        0.974949 -0.272331 -0.562065
        -0.817322 -0.42474 -0.501863
        0.869137 -2.04159 -0.22431
        -0.54829 -2.69555 0.6189
        0.229621 -2.23608 0.806353
        0.458811 -1.43323 0.7937
        -0.338602 -1.75952 -0.489535
        0.713693 -2.74805 -0.529033
        0.53082 -0.61454 -0.96704
        -0.238073 -1.31089 0.919439
        -0.127132 -1.2886 0.262287
        -0.815646 -0.44086 0.53999
        -0.316884 -2.03074 0.42139
        -0.0913237 -1.30904 0.562818
        1.23522 -1.23473 0.934918
        -0.930147 -1.64822 0.785017
        0.925083 -1.99541 0.153534
        1.5864 0.15824 -0.690173
        0.0950528 -1.79946 0.252424
        -0.0553414 -0.0246047 0.779324
        0.0814608 -0.959655 1.11845
        0.307503 -3.0753 0.258383
        0.312109 -1.43754 -0.990684
        0.413398 -0.957726 -0.208035
        -1.41065 -1.12792 -0.0362788
        0.524282 -1.56093 0.720438
        -0.0828315 -1.66094 0.420116
        -0.0320802 -0.720093 0.0644846
        -1.05288 -1.95229 -0.542104
        0.52578 -2.27622 1.27802
        0.12609 -2.52925 1.31787
        -0.149875 -1.26542 -0.865376
        0.205263 -1.61253 0.767096
        -1.20494 -0.897047 -0.161532
        0.0429953 -1.13049 -1.9037
        1.01919 -1.00831 0.861144
        0.193731 -2.51062 -0.844089
        -1.04631 -1.56725 0.59849
        -0.210668 -1.03514 -0.56451
        0.329758 -2.33208 -0.109006
        1.10164 -0.426133 0.265815
        0.0380883 -0.699518 0.115153
        -1.15231 -1.82208 1.08283
        1.63496 -2.17106 -1.6213
        0.132611 -2.51654 0.955321
        0.253697 -0.695281 0.245833
        0.391462 -0.843975 -0.517331
        0.191051 -1.14291 -0.268577
        0.566508 -1.26561 -0.247175
        -0.798729 -1.36707 0.638464
        -1.05703 -1.0985 0.88163
        0.226092 -1.00636 0.477531
        -0.56746 -0.830073 0.334872
        0.174671 -0.683722 -1.12146
        -0.0725948 -2.32936 -0.140859
        -0.57159 -2.13847 0.923757
        0.748396 -0.960664 -0.0906324
        -0.602334 -1.18559 0.307264
        1.24931 -0.978864 -0.698682
        -1.65778 -2.46429 -0.1922
        1.3349 0.166234 -0.941273
        1.20675 -1.79014 -0.238203
        1.42795 -2.23489 -0.43487
        0.820832 -1.85783 -0.293504
        -0.115458 -2.09115 -0.823442
        0.512364 -1.16778 0.601337
        -1.22075 -1.12278 0.546356
        -1.18288 0.123615 -0.228811
        0.914191 -1.21626 -0.653135
        -0.222861 -2.01132 0.289277
        -0.105568 -1.81118 -0.177489
        0.626051 -1.82073 -1.68407
        0.671925 -2.00685 0.00164645
        0.716399 -1.56892 -0.674505
        -0.477647 -2.11258 -0.176011
        0.328949 -2.10302 0.77426
        1.816 -1.95638 0.821713
        -0.924105 -0.920126 0.885033
        0.392878 -1.51611 0.568206
        -0.902792 -2.00041 0.656963
        0.364763 -2.0128 0.385516