<?xml version="1.0" encoding="UTF-8" standalone="no" ?>
<VTKFile byte_order="LittleEndian" type="UnstructuredGrid" version="0.1">
  <UnstructuredGrid>
    <Piece NumberOfCells="0" NumberOfPoints="1764">
      <PointData>
        <DataArray Name="velocities" NumberOfComponents="3" format="ascii" type="Float32">
        -1.08234 -1.28698 -0.426813
        -0.385338 -1.305 0.554739
        -0.674836 -0.493601 0.397328
        -0.0542261 -1.17592 -0.358869
        -0.554038 -0.283707 0.0291481
        -0.107907 -0.876103 -0.881723
        0.222491 -1.51141 -0.35223
        0.279445 -1.19585 -1.39361
        0.297559 -2.71683 1.18262
        0.564348 -0.850217 0.0708179
        1.15987 -2.24694 -0.246081
        0.327873 -1.51182 1.24329
        1.22421 -0.258666 -1.0096
        -0.823786 -1.28545 0.517399
        0.568352 -0.857373 1.24104
        -0.999639 -1.94184 -0.835513
        1.34434 -1.9619 0.347545
        -0.198053 -1.79606 0.103607
        0.127455 -2.0848 0.395655
        0.465033 -2.51871 -0.249793
        0.310554 -1.11571 -0.302045
        -1.18247 -0.977341 -0.914647
        0.210012 -2.11289 0.976842
        -0.489695 -1.81075 -0.594845
        -0.888622 -0.618359 -1.26262
        -0.624118 -1.30882 0.261469
        0.613187 -1.26063 1.2897
        -0.546364 -1.69457 -0.726673
        -0.917988 -0.802692 -1.43862
        -0.740915 -0.838927 0.192902
        0.120332 -1.74985 -0.840094
        -1.03965 -2.18208 1.02711
        0.169213 -1.91798 -0.142552
        -0.444184 -1.84911 -0.942504
        -0.439249 -0.957844 -0.214397
        -0.567412 -0.859468 -0.299822
        0.285973 -1.24532 -0.573265
        -0.687476 -0.296817 1.10312
        0.510694 -1.88256 -0.3678
        -0.42594 -0.796645 -0.456892
        -0.350794 -0.584162 0.746258
        -0.553978 -1.98013 -0.206866
        0.164879 -0.776526 -0.272719
        0.604989 -1.40524 -0.46731
        0.339092 -2.20871 0.61457
        -0.174984 -0.265761 1.12797
        -0.906555 -0.341231 -1.25981
        -0.61806 -0.0465908 0.721197
        -0.737322 -1.25834 -0.811183
        0.712815 -2.04177 -0.498197
        0.332377 -1.99805 1.44967
        0.490227 -0.278931 0.604441
        0.626986 -1.57478 -1.04674
        0.0649378 -0.761193 0.102004
        -0.386088 -0.677156 0.246217
        -0.928309 0.18261 0.206436
        0.307432 -1.25344 0.429432
        1.19585 -1.94234 -1.37222
        0.981853 -1.66884 -0.429537
        -0.0849702 -2.31112 0.762296
        -0.238518 -2.02904 -0.201765
        0.461921 -1.01558 0.0672176
        -0.771074 -1.19017 -0.200092
        -0.52845 -1.44584 -0.719272
        0.948605 -1.09608 -1.47488
        0.329026 -2.97705 0.192435
        -0.399468 -0.27497 -1.35721
        1.02316 -2.19145 0.723708
        1.45064 -1.12831 -0.473342
        1.47591 -0.395721 -0.792298
        0.143603 -1.13086 0.655585
        1.33431 -0.0969029 1.58624
        0.132009 -1.0936 -0.744009
        0.0315923 -0.035319 0.4314
        0.0190021 -1.42477 0.920712
        0.324549 -1.60316 -1.53874
        -1.13888 -1.6596 0.293749
        0.496805 -1.51023 0.869398
        -0.650839 -1.81069 0.586181
        -0.00452684 -0.420051 0.34729
        -0.27594 -1.35214 -0.391335
        -0.00539192 -1.44528 -1.08836
        0.367725 -0.0883548 0.752005
        -0.0952673 -1.23225 0.333771
        -1.50888 0.555387 0.336873
        0.723157 -1.46838 -0.457355
        -1.39599 -0.88353 0.261959
        0.154181 -2.05751 1.96665
        -0.206264 -0.927401 -0.291592
        0.788352 -1.65705 -0.0234421
        1.91387 -0.972363 1.00295
        -1.26286 -1.71663 -0.0775253
        -0.166834 -1.77553 -0.0934353
        -0.823976 -0.488286 0.0459725
        0.0693972 -1.08663 -0.267567
        0.0022934 -1.34039 1.19085
        -0.2276 -1.34232 0.257604
        0.449529 -1.97316 0.0463501
        0.907946 -0.976836 0.575519
        -0.285453 -1.11722 -1.95726
        -0.765869 -1.43903 -0.00481719
        1.43666 -1.53284 -0.398562
        0.38828 -0.482368 0.64564
        1.14982 -1.03672 1.03862
        -0.246599 -0.996015 0.0422493
        0.550358 -2.62213 0.361021
        0.610462 -1.57662 0.346293
        1.22513 -0.482899 -0.805014
        0.139303 -0.23928 0.486678
        -0.416181 -1.22918 -0.911562
        0.591569 -0.376314 -0.779469
        1.475 -2.09922 -0.454305
        0.661257 -1.13458 -0.923768
        0.701272 -2.1247 0.421436
        0.270029 -2.41345 -1.43845
        -0.558026 -0.968914 -0.027272
        -0.553293 0.854313 0.204651
        -0.0294717 -1.75165 -1.46366
        0.208448 0.166914 0.0392891
        -0.109591 -0.0180423 -0.350615
        0.779211 -1.75857 -0.0454008
        -1.43303 -1.20231 -0.19761
        0.968391 -1.61209 -0.71094
        0.457449 -1.78172 -0.293136
        0.420344 -1.29253 0.744914
        0.519066 -2.27535 -0.851207
        1.20706 -0.381408 1.68584
        0.964369 -1.17709 -0.501848
        0.39056 -1.66499 0.830086
        -0.278226 -1.28427 -0.296623
        -0.14006 -0.336241 -0.418667
        -0.627984 -1.02955 0.413924
        0.40388 -0.208546 -0.461252
        -1.74036 -1.09482 -0.483014
        0.924888 -1.29519 -0.49369
        -0.832485 -2.90229 0.366421
        0.135328 -2.05709 0.181539
        0.795743 -0.197236 -0.492061
        0.65336 -1.72859 0.0843097
        -0.0277119 0.207001 -0.743172
        -1.97761 -0.462965 -0.153494
        0.408706 -1.16476 -0.107053
        -0.731428 -1.63855 0.774451
        -0.885567 -0.715894 -0.952019
        -0.440013 -1.53682 -0.175032
        -0.233574 -1.46682 -0.433525
        1.70337 -0.971152 -0.946946
        0.0839378 0.11246 0.661921
        0.0495216 -0.840016 0.264708
        -0.465647 -2.66267 -1.17975
        0.508907 -0.0177938 -1.24503
        -1.03261 -1.55772 0.231792
        -1.65035 -1.9017 0.857899
        0.305562 -0.235558 -0.26526
        0.182172 -1.53137 -0.253764
        1.18455 -1.49125 -0.431108
        1.17302 -1.16094 -0.271477
        0.863337 -0.598372 1.34277
        -0.577027 -1.42636 -0.291762
        -0.948254 -1.17471 -1.03348
        -0.702547 -0.882154 0.599894
        -0.916721 -0.236826 0.192146
        -0.209293 -0.422601 1.30041
        -0.129308 -0.482425 0.945526
        0.0914946 -1.02418 -0.634783
        -0.387323 -0.00596011 1.02684
        0.223089 -1.76079 1.72508
        -0.462146 -1.42548 -1.61608
        -0.534837 0.0991206 -0.544059
        -0.496367 -0.402968 0.286512
        -0.330777 -1.45826 0.357503
        0.748212 0.215442 -0.218199
        0.490201 -1.4629 0.387711
        -0.320103 -1.19783 0.891255
        -1.00975 -1.23771 -0.279196
        -0.488542 0.818499 -1.07571
        -0.310789 0.833123 0.0349093
        0.0622072 -0.298188 0.0583236
        -2.20553 -2.15947 0.561408
        1.04119 -0.685226 0.654514
        -1.6046 -0.628283 -0.0894502
        0.0431878 -2.00486 1.2596
        -0.0276714 -1.26673 -0.864563
        0.784758 -0.321771 -0.100399
        -0.427482 0.409195 0.408503
        0.928665 1.0474 0.198752
        0.0360248 0.0360638 -1.81913
        -0.0735809 0.374103 1.65408
        -0.264206 0.682189 -0.684194
        0.794553 -0.408299 0.22348
        -0.372429 0.795213 1.74569
        0.649979 -0.186475 0.166944
        -1.24675 1.07406 -0.672946
        -1.99631 1.58111 0.0495433
        -0.751682 -0.147237 0.62922
        1.84065 0.532111 0.155115
        -0.517925 0.509151 -1.16357
        0.56198 0.219599 0.651894
        -0.168598 1.03574 0.0309964
        -0.0209517 -0.108627 -1.85596
        1.18499 0.915925 0.837456
        1.41159 1.55154 1.35685
        1.55883 1.24626 0.199953
        -1.04869 1.6049 -0.511447
        -0.85573 1.96916 -0.253145
        0.812259 2.06556 0.0206402
        -0.479685 1.43551 1.0417
        0.776405 1.45971 -1.36578
        0.743945 0.763125 -1.86857
        -0.422752 1.07949 -0.320621
        0.672316 1.53613 -0.819109
        -0.410908 0.741897 -0.042846
        0.599359 0.989951 -0.117384
        -0.0771229 1.03742 -0.967672
        0.497468 0.519556 0.65571
        0.131267 0.970862 0.761287
        0.0568115 0.706149 1.74741
        0.617443 1.17081 0.186435
        -2.17305 0.538629 -0.313279
        1.49709 0.197526 0.750353
        0.631068 1.46997 0.117254
        -0.794738 2.66105 -0.401377
        0.309634 1.7328 -0.538468
        -0.699104 1.18638 0.372791
        -0.097145 0.63771 -0.627208
        0.417095 0.900171 0.111621
        -0.358032 1.89573 1.23207
        -1.17414 1.82581 0.319839
        -0.343827 1.08045 -0.147435
        -0.149142 2.14148 0.524731
        0.212503 0.926025 -1.62729
        -0.706827 1.81248 -1.60783
        0.812501 2.14251 -0.50943
        0.340382 2.60591 -0.691518
        0.783268 0.251832 -1.22007
        -0.0692854 2.25131 -0.45951
        -0.518673 1.80105 -1.14881
        1.11177 0.954938 -1.21033
        0.23503 1.65829 0.68111
        -0.855188 1.19702 -0.0280828
        -1.41681 2.1619 0.160643
        -1.36562 0.88891 -0.0958758
        0.429083 1.20504 -0.662707
        0.094702 1.52918 -0.638627
        0.313244 1.13795 0.304723
        1.4383 1.88334 -0.283555
        -0.168639 0.838411 0.436476
        -1.15404 -0.0473896 0.0242249
        1.14956 2.0265 -0.418045
        0.0306158 0.780964 0.73187
        -1.20017 1.64458 -0.461755
        0.0813976 1.12451 0.186462
        -0.299545 0.0276336 -1.3753
        0.246326 1.49234 0.313378
        0.579943 -0.145797 -0.612139
        0.0773253 1.77802 0.962734
        0.917571 2.49841 -0.463772
        0.213607 1.35217 -0.216849
        -0.229368 1.40844 -0.463211
        0.417971 1.21132 0.234175
        1.35828 1.87406 -0.139318
        -0.914059 1.53727 -0.583096
        -0.716647 1.33237 -0.178054
        -0.573943 0.57761 0.014447
        -1.34838 1.85154 -0.197192
        -0.721521 1.44747 -0.49607
        1.13173 1.32176 -0.82546
        0.232921 1.56858 -0.134185
        -0.178619 1.12344 0.375532
        -0.586357 2.0112 0.415409
        -0.965736 1.42231 -0.0437548
        0.720367 1.21504 -0.464802
        -0.660076 0.718499 1.91487
        0.684685 1.16173 -0.264015
        -0.50958 0.906047 0.137461
        -1.42544 1.43503 0.808164
        -0.82496 2.70177 0.310611
        -1.16818 2.40958 -0.226013
        0.773739 2.13727 0.993113
        0.350155 0.560196 -0.0174019
        -0.232863 1.93237 1.0325
        0.858676 1.45441 -0.832362
        -0.178523 1.77382 0.198845
        0.184661 1.01124 0.177159
        0.177834 3.3209 0.927698
        -0.51145 2.00536 0.224564
        -0.813415 1.12367 0.0357972
        1.68406 0.826042 1.09619
        -0.807342 0.34432 0.179669
        0.75533 0.700422 0.0335528
        0.346813 2.28655 -0.449858
        -1.08345 0.927042 -0.304308
        1.01002 2.90623 -0.266428
        -0.0516195 2.71105 -0.206369
        -0.659916 1.5725 0.183696
        -0.698536 3.35749 1.44026
        0.303413 2.00615 0.843619
        0.585312 1.68081 -0.141836
        -0.417649 2.19964 0.346199
        0.0497888 2.54554 0.867028
        0.915616 2.48903 -0.0862809
        -0.413101 0.624398 -0.181211
        -0.109353 1.45067 1.06521
        0.7006 1.6992 -0.487577
        -0.320214 0.857725 -0.221475
        0.103087 2.36954 0.856619
        0.0743005 1.72758 -0.45089
        0.182047 0.330752 0.30735
        -0.276991 1.38289 -0.424069
        0.217019 1.20558 -1.12971
        0.393035 0.909736 -0.643283
        -1.04603 0.306258 -0.0451294
        -0.278421 1.7644 -0.0769446
        0.620455 1.02257 0.0983687
        0.22011 1.81022 0.265805
        0.571805 1.14628 -0.23713
        -0.986894 0.524468 0.145718
        0.224 0.798624 0.255274
        -0.0486659 2.2226 0.191143
        0.129856 1.58333 0.93818
        -0.67449 1.58446 0.359591
        -0.111054 1.12531 0.541769
        -0.929153 1.73191 -0.418059
        -0.195077 0.928922 0.836223
        -0.492432 2.42979 0.246034
        0.402808 1.96821 0.297054
        0.312999 1.89574 0.0710369
        0.294787 1.77868 -0.333683
        0.396399 0.959863 0.499788
        0.000865648 1.2384 1.15884
        0.974551 0.659665 0.503641
        0.584216 0.601291 -0.941074
        -0.0129243 0.706158 0.121471
        -0.205148 1.39625 0.560653
        -0.353253 2.40067 -0.329119
        -0.33925 2.06122 0.178591
        0.947471 1.16832 0.31021
        -0.116815 2.06755 0.642431
        -0.106415 1.15752 -0.376306
        -0.137246 2.26158 -0.245421
        0.592904 1.96816 1.5337
        0.210678 1.0605 -0.962345
        -0.257871 1.14361 -0.129057
        0.530775 1.3243 -0.926599
        1.04684 0.847062 -0.659263
        -0.787664 3.04089 -0.692324
        1.08019 3.13109 -1.46152
        -1.04977 0.415496 0.0142635
        -0.660221 1.41845 0.314354
        0.427792 0.722847 -0.390821
        0.786643 0.385865 1.04348
        -0.672421 0.831217 -0.187343
        -0.326042 1.19097 0.569823
        0.653661 1.02155 -0.433869
        1.27796 1.71283 0.0657599
        -0.569254 -0.164157 0.757508
        -1.35098 2.18277 0.844545
        0.672377 0.923727 -1.63524
        0.287825 0.914367 -0.498101
        -0.40757 -0.0897152 0.71748
        -1.12889 0.961243 0.658352
        0.160895 -0.521421 0.297097
        -0.105199 2.14317 -0.357252
        0.00965311 1.20001 -0.405171
        0.548468 2.28968 -0.515024
        0.301668 0.0390565 -1.12281
        -0.851871 1.18731 -0.479315
        -0.925014 2.43701 1.2383
        0.216959 1.86961 -0.702673
        0.995888 -0.706362 1.27983
        0.508306 -0.80948 0.279116
        1.02791 -1.2133 1.53014
        -0.18092 -1.44448 -0.268746
        -0.52537 -1.74405 0.257254
        -0.509495 -2.33973 0.501359
        1.94431 -0.197786 1.38035
        0.410014 -1.52995 -0.14946
        0.247424 -1.10249 0.673508
        -0.247708 -2.58727 0.16421
        -0.103984 -0.702616 0.281652
        0.370278 -2.14839 -1.47146
        0.0844019 -1.25014 1.31795
        0.291968 -0.544129 -0.0873064
        0.361682 -1.14257 -0.143928
        1.71857 -0.964123 0.78053
        -0.197377 -1.45568 0.657981
        0.214312 -1.34018 -1.62094
        -1.44025 -1.8012 0.335472
        -0.427042 -0.311482 -0.598188
        -0.793284 -0.172966 -0.830935
        -0.358044 -1.29051 -0.0863993
        0.454098 -1.90275 -0.575344
        -0.384211 -0.865054 1.05978
        0.0496419 -1.71018 -1.29367
        0.757974 -1.4787 -0.14907
        0.727972 -2.10948 0.668682
        -0.83438 -1.16652 -0.535897
        -0.191317 -2.31919 -1.25632
        0.26697 -0.99113 -0.000119308
        0.199927 -0.359553 -0.105256
        -0.756201 -0.412459 0.616807
        0.415038 -1.09631 -0.158567
        0.892966 -1.40107 0.672889
        0.380926 -1.00197 0.118382
        -0.607341 -0.532872 0.670003
        0.599386 -0.625214 1.24365
        -1.01486 -0.219781 0.717678
        0.129084 -1.37699 1.46194
        -1.42483 -1.43001 0.448404
        -1.39993 -1.24873 -0.807221
        -0.327128 -1.2268 1.22273
        -1.33815 -1.41246 0.302251
        -0.337901 -1.6987 0.501649
        0.889228 -1.62711 0.111656
        0.827008 -0.422101 0.545311
        -0.356434 -1.0031 -1.97702
        -0.679298 -0.565148 -1.07226
        0.278541 -2.33722 -1.11676
        1.33603 -1.55021 0.0690337
        -0.130676 -0.237603 -0.798533
        0.267819 -1.81286 0.174668
        1.31698 -2.1021 -0.499192
        -0.280936 -0.590461 1.58249
        0.0768732 -1.09692 -0.538778
        0.00237951 -0.968589 0.177873
        0.382649 -1.93364 -1.0785
        0.648086 -1.27788 -0.587879
        -0.803421 -0.668175 0.939612
        0.828257 -1.77279 -0.652995
        -0.663543 -2.35978 -0.0165292
        -0.168213 0.048952 -0.133227
        0.254819 -0.997733 -0.122283
        0.124589 -1.05374 -0.24372
        -0.578794 -1.02446 1.013
        0.616408 -2.48898 -0.885288
        0.341726 -0.756525 -0.327486
        0.116982 -1.70683 1.45485
        -0.200879 -2.30689 -1.19247
        -0.545554 0.254397 -0.397055
        -0.183087 -1.02273 -1.51577
        2.18753 -1.42557 -1.02646
        -0.0445834 -1.38506 -0.0908244
        -0.830969 -0.478261 0.838878
        0.0372886 -2.75206 0.126389
        0.144173 -0.918763 -0.41416
        0.102214 -0.873248 -0.45444
        -0.939493 -0.441863 -0.66802
        0.325594 -0.952961 0.77884
        0.249511 -0.397103 -0.426375
        -0.443705 -1.90211 0.74096
        0.481207 -0.393034 -0.703902
        -0.558644 0.345287 0.705081
        0.0126202 -1.98183 0.454243
        0.694527 -1.43393 -0.311311
        -1.2803 -0.77521 0.238556
        0.597012 -2.34955 -0.326455
        0.613777 -1.02238 -1.15009
        -0.17555 -1.92384 -0.0611675
        0.388751 -0.23629 0.394835
        1.2359 -2.02243 0.583594
        0.423566 -1.45072 -0.317195
        0.94775 -1.65174 -1.36875
        0.722414 -0.42357 0.550567
        -0.0825882 -2.37466 -0.693398
        -0.125579 -2.37035 -0.0877407
        -0.00735338 -2.89818 -0.750803
        1.16332 -0.17856 0.769567
        0.248464 -0.587089 0.922992
        -0.314576 -1.42868 0.232752
        -0.33367 -1.9385 0.353081
        -0.264885 -1.24535 -0.311861
        0.401795 -1.53798 -0.90566
        0.0737542 -0.546752 -1.02576
        -0.65672 -1.75911 1.02297
        0.916838 -0.381705 0.681587
        0.0129983 -2.61653 -0.181701
        -0.576018 -2.12734 -0.186536
        -0.906863 -1.84347 -0.471831
        -0.359213 -0.786264 0.0576363
        -0.0201014 -2.3992 -0.907406
        0.438224 -2.57799 -0.924742
        -0.112886 0.984566 -0.540084
        1.45855 -0.75003 -0.351593
        0.0225463 -1.14418 -0.772409
        0.142814 -0.808988 1.30007
        -1.11681 -1.96643 2.03335
        -1.30011 -0.954176 -0.209977
        -0.400489 -0.532235 -0.35393
        0.125136 -1.18535 -0.0906839
        -0.514041 -0.40764 0.0548434
        -0.385627 -1.40522 -0.554449
        0.372967 -1.65387 -1.1248
        0.224268 -1.43764 0.149766
        -0.75132 -2.0897 0.554425
        0.0475576 0.670387 0.651487
        1.22353 -1.19458 -0.431773
        -0.128815 -1.71125 0.730811
        1.04547 -1.21551 0.993529
        0.0631905 -1.21526 1.36802
        0.0530348 -1.43887 -0.667032
        0.481328 -1.86138 0.956502
        0.0737731 -1.9194 0.452792
        -0.715356 -1.34474 -0.330686
        0.54884 -0.924141 -1.10777
        1.08939 -1.43246 -0.152577
        1.17324 -2.14097 -0.179648
        0.24746 -2.90164 -0.250628
        0.956753 -1.23311 0.24344
        -0.0987119 -1.0521 -1.54477
        1.2788 -1.57684 0.28793
        -0.330044 -2.24857 -0.175692
        -1.07156 -1.35593 -0.523691
        0.533843 -1.32695 -0.351021
        1.35937 -0.672174 0.29104
        0.557244 -1.37875 0.0366286
        0.747707 -1.65275 -1.00291
        0.121493 -1.27645 -0.0491081
        -0.262324 -1.13438 0.174932
        1.03823 -0.738608 -1.84718
        -0.697272 0.120368 -0.367419
        -0.393354 -0.229674 -0.807523
        -0.192668 -0.981358 -0.312592
        1.23978 -0.591648 -0.397803
        -0.593507 -1.35471 -0.825103
        -0.651451 -2.27054 -0.332654
        -0.444249 -1.1479 0.523322
        -1.49843 -1.1165 0.380182
        -1.30994 -0.5713 0.124927
        1.06251 -3.18029 -1.51763
        -0.378132 -0.719325 -0.573909
        -0.415521 -1.00239 0.612497
        0.0510677 -1.94237 -2.11308
        0.459634 -0.801894 0.842745
        0.371921 -0.359345 0.0814421
        -0.289378 -0.541423 -0.288223
        1.47185 -0.781637 -0.549637
        0.298852 -1.07385 -0.641367
        -0.32636 -1.54956 -0.885957
        -0.430917 -0.987793 0.772072
        0.991752 -0.555355 0.823471
        0.291453 -1.25566 0.474093
        0.265227 -0.743495 -0.783092
        0.75189 -1.25454 -0.612343
        -0.775688 -1.99551 1.48591
        -0.357461 -0.714515 -0.955301
        -0.402183 -1.8107 -1.85183
        -0.437716 -0.948385 -0.0558121
        -1.50312 -1.17958 1.70172
        -0.736474 -1.40409 0.106447
        -0.927911 -1.23948 -0.0879374
        -1.75789 -0.929366 0.82183
        -0.826948 -0.536255 -0.140855
        -0.122199 -0.942577 -0.475241
        -0.634594 -1.40933 0.507407
        -0.787337 -0.780084 -1.26245
        -0.571385 -0.106749 -0.319717
        0.13974 -1.80588 0.28241
        0.0985488 -1.09514 0.825088
        0.792005 -1.37572 -0.95247
        -0.21856 -1.59348 0.121477
        -0.625044 -0.392258 -0.460835
        -0.427889 -1.04346 1.01514
        -0.162157 -0.390981 -0.242077
        0.454006 -0.371363 1.00391
        1.87559 0.275852 -0.571541
        -1.5553 0.222513 0.689982
        0.030858 0.909727 0.0299927
        -0.165583 -0.0186847 0.433553
        0.738763 0.550635 -0.241432
        0.799724 0.898627 -0.747446
        -0.458323 1.327 -0.301035
        0.430814 0.00801433 -0.43121
        -0.209573 -0.611204 -0.640762
        1.2962 0.949872 0.114069
        -0.184728 1.683 0.59864
        0.465806 0.800341 -0.863927
        1.29176 0.282142 0.205517
        0.921204 0.934383 0.863227
        -0.513105 0.669827 0.540633
        -0.583991 0.561239 0.341535
        0.540466 -0.0368396 0.0263867
        0.0502817 0.844847 0.695595
        0.722281 -0.0349222 0.606763
        -1.09586 0.883943 -0.693354
        -0.381024 0.780418 -0.306035
        0.442975 1.31389 -0.7538
        1.42062 0.798236 0.203985
        1.19908 -0.0866064 -0.0571783
        0.0521417 0.326585 2.19073
        0.074167 1.63528 -0.916787
        -1.39523 0.727495 0.385349
        1.15829 1.77769 0.917648
        -1.45282 0.539306 -0.478819
        -0.156912 0.653656 -0.200602
        -0.0870082 1.16296 -0.574653
        -0.141511 0.455356 -0.00865287
        0.203935 -0.132381 1.29709
        -0.737246 2.39936 0.434999
        0.0161073 1.01177 0.434182
        0.0495067 1.84011 0.496417
        -0.633976 1.98722 0.819707
        0.226841 0.489048 0.943083
        -0.883171 1.66314 1.42022
        -0.253156 1.4881 0.856147
        -0.403247 0.939268 -0.531165
        -0.199885 0.922476 -1.33733
        -0.405175 0.774301 -0.288572
        -0.929228 2.49277 0.298311
        0.730848 2.38457 -0.149981
        -0.332524 1.13125 -0.213121
        -1.12858 0.269521 0.115038
        0.656265 1.43974 -0.478272
        1.26943 1.87469 -1.61332
        0.766691 1.85145 -0.209381
        0.984468 1.49594 0.217512
        -0.452257 2.32917 -0.157567
        -1.62749 0.816997 -0.992223
        -1.45972 0.820284 1.28332
        0.205777 0.882319 -0.157886
        -1.51948 3.01741 0.219876
        -0.411872 1.57198 0.15176
        -0.157368 0.482754 0.0701837
        0.671411 0.318826 0.309848
        -0.498214 1.89501 -0.887918
        -1.01783 1.47902 -1.08509
        -1.33032 2.37921 -0.838494
        0.220811 1.98858 -0.138537
        -0.557991 1.76372 -1.23593
        -0.373745 1.42587 0.859155
        0.764376 1.76852 1.59834
        -0.163007 3.01455 -0.787173
        -1.10204 2.11183 -0.304264
        0.505488 0.910395 -0.605445
        -0.585356 1.26793 0.138973
        0.346826 1.74986 -0.256911
        0.232434 2.38013 0.53076
        -1.25733 0.789466 -0.179754
        -0.110607 0.855576 0.190681
        0.787544 1.18549 0.318581
        -1.25594 1.47422 -0.00136317
        0.0709613 2.64165 0.144006
        0.0333032 0.816148 1.04157
        0.0207154 1.32827 -0.471786
        -0.838814 1.70222 0.0699454
        -1.03609 0.83324 0.745312
        -0.554485 0.955717 0.696797
        -0.156183 -1.192 0.261156
        1.0508 0.211283 0.0846584
        -0.491751 0.564686 -0.259785
        0.213599 2.81095 -0.516162
        0.457254 1.97913 -1.12876
        -0.491653 -0.151348 -0.529762
        0.270013 0.279887 -0.354
        0.364537 1.34095 1.94574
        0.372044 1.3803 -1.33191
        -0.837928 2.29715 -0.0266083
        0.158365 1.20544 -0.821527
        1.36537 1.17945 -1.72464
        -0.737677 1.44359 0.501006
        0.276373 0.849256 1.09598
        0.203826 -0.000320133 0.788085
        0.577354 2.65134 -1.14912
        0.189803 1.38038 -0.167005
        0.531764 2.56826 -0.447652
        1.13987 0.766406 0.309299
        -0.883989 0.19366 -0.513219
        0.202121 0.895041 0.096359
        -0.264969 0.831084 -1.00086
        -0.419798 0.910819 0.218071
        0.214845 0.293039 -0.901358
        -1.58545 -0.231962 -0.0693637
        -0.756171 2.65881 1.05649
        0.175736 0.805236 0.0103938
        0.566572 0.301562 -0.0347781
        0.361819 2.90118 -0.880792
        0.294659 0.679612 0.610628
        -0.672705 0.947382 -1.33623
        -1.1611 0.324086 -0.947967
        -0.495985 1.16413 -0.643116
        0.467402 1.40119 0.144533
        -1.10611 2.21706 -1.02256
        -0.606546 0.0991628 0.646855
        -0.335905 1.93243 0.59761
        1.02231 2.68751 0.278585
        1.14986 1.33503 -0.453197
        0.319637 0.219706 0.308177
        0.422951 2.23374 -0.777736
        0.137776 0.3525 -0.390297
        -0.891033 1.61629 -0.100389
        -1.1625 1.28622 0.257904
        -0.231353 0.652696 -0.79669
        -0.316315 1.24226 0.0184169
        0.0397797 0.673031 1.54621
        -0.865709 1.23037 -0.244456
        0.0347208 0.779447 0.0941142
        0.706892 1.28307 0.524346
        -0.829365 1.98058 -0.823631
        -0.295605 1.91321 -0.202296
        0.726951 1.50517 -0.171727
        -0.413254 0.816947 -0.500769
        0.0105524 1.53487 -0.0949636
        -0.226043 0.448541 -1.51512
        -0.0368968 2.41121 0.333093
        -1.77195 -0.639306 -0.314987
        -1.23721 1.56031 -0.532986
        0.747455 1.25722 -0.023413
        0.195546 2.25413 0.338482
        -0.412303 0.426801 0.00808338
        -0.128093 2.94561 1.26649
        -0.897402 0.62529 -0.0450773
        -1.02615 -0.00559359 -0.171022
        -0.0826916 0.596283 0.0780677
        -0.356538 2.19035 0.092111
        0.0653699 1.78608 0.352044
        -0.64641 0.57248 -0.386837
        0.678705 1.03642 0.430461
        1.41563 0.966567 -0.174162
        -1.14468 0.90779 -0.0565775
        -2.02197 0.63511 0.338621
        -0.4444 0.926676 -0.997381
        1.02781 1.88267 -0.160061
        -0.973903 1.24721 -0.890089
        0.346723 0.405254 -0.0268921
        -0.184568 1.32667 0.0120114
        -0.0719013 2.47333 0.0437249
        -0.798606 1.20391 0.302482
        0.0802589 3.41205 0.791548
        -0.263489 1.07264 -0.611237
        -0.146239 3.03168 -1.36096
        -0.321803 1.94333 -0.577403
        -0.0341478 1.24934 -0.83495
        -0.677569 1.92287 -1.45378
        -0.336612 0.938179 0.433936
        -0.42628 1.71926 -0.015409
        -0.0933081 2.89647 0.218427
        -0.729119 1.01138 0.069559
        0.524575 2.18549 1.10831
        0.84024 0.503433 0.0785977
        0.510553 1.10757 1.13313
        0.831602 1.34553 0.349146
        -0.50987 0.991863 -0.975941
        -0.221783 2.28498 0.06106
        -0.508534 0.895495 -0.564127
        -0.580848 1.17426 0.357331
        -1.00444 2.58713 -0.037794
        0.488612 -0.902136 -0.240094
        1.52004 -0.899818 0.978765
        -0.373603 -0.382361 -0.171806
        -0.686842 -2.1874 0.962187
        -0.564315 -1.02244 0.276228
        -0.997525 -1.1277 0.124287
        0.0295608 -2.04105 -0.467021
        -1.04367 -1.70125 0.500735
        -0.00299738 -1.41805 0.507688
        -1.70379 -1.43062 -1.50668
        0.779021 -1.32523 -0.301859
        0.779023 0.334634 0.372959
        -0.0233634 -1.55502 -0.421897
        0.293581 -0.337296 -0.146052
        0.555553 -2.14549 0.0847959
        -0.853731 -1.31336 1.07278
        0.177943 -1.19214 -0.242334
        -0.584996 -1.9995 0.195813
        0.410321 -1.82472 -0.159676
        0.506712 -1.88678 -0.68892
        1.64544 -3.33038 0.566076
        1.11023 0.0792947 -0.22811
        -0.309363 -1.54104 1.73392
        0.095045 -1.88439 1.06254
        -1.58522 -0.260663 -0.0176384
        0.443982 0.225484 -0.867463
        -0.640482 -1.978 -0.270229
        0.448124 -1.00883 0.306152
        0.845493 -1.98864 1.42632
        -0.230181 -0.679456 0.434413
        -0.155069 -0.430057 0.136297
        -1.17637 -1.17211 0.911176
        1.73256 -2.85289 -0.462254
        0.230137 -1.65116 -0.0931298
        0.269808 -2.55413 -2.18256
        0.34533 -2.17486 -1.21293
        0.377658 -1.24369 -0.802188
        -0.873711 -2.20876 0.110633
        0.449018 -2.02912 -2.7862
        -0.873349 -0.782894 -0.500073
        -0.158758 -0.212432 -0.607103
        -0.0359123 -0.26217 -0.0519452
        0.26914 -2.37373 -1.27901
        -0.534298 -1.74431 0.189531
        0.329139 -0.0848435 -1.58115
        -0.244634 -0.361883 -0.0163199
        1.64172 -1.14674 0.941266
        -0.0870504 -0.354071 0.818562
        -0.861086 -1.88113 1.23903
        -0.92562 -0.976507 -1.21343
        0.716025 -1.87875 0.619092
        1.49543 -1.87197 -0.149229
        0.335021 -1.41224 -0.66691
        0.287056 -1.59696 -1.15145
        0.180632 -0.899784 -0.0312631
        -0.084309 -1.24284 0.220649
        -0.976061 -2.16845 -0.0677973
        -0.400749 -2.85882 1.14164
        -0.92612 -1.56654 0.351347
        -0.715242 -0.537648 -0.0557782
        0.549753 -0.766858 1.22145
        0.385974 -1.31337 0.238334
        -0.074344 -2.31353 0.475206
        0.88985 -1.41993 0.21446
        0.953479 -0.399722 -0.0970665
        0.454751 -1.24889 1.02216
        0.106206 -1.71126 -0.400583
        0.132129 -1.42344 1.09315
        -0.159695 -2.42891 0.418287
        -0.372652 -1.7873 0.641601
        -0.630059 -1.51119 -1.12185
        -1.1245 -1.26468 -0.0279216
        -0.13454 -2.2072 1.2692
        -0.0157778 -0.77367 -0.0448952
        -1.24894 -1.72606 0.493095
        0.893864 -0.306566 -1.75486
        1.77489 -0.362269 -0.414498
        0.585347 -1.92119 0.685072
        -1.02572 -1.56416 -1.15572
        0.554619 -0.312169 -0.677179
        -1.42866 -0.456517 -0.433273
        -0.448902 -1.46147 -0.0548777
        0.240884 -2.3735 -0.867019
        0.62616 -0.0340782 0.317957
        0.910839 -0.597629 0.264707
        -0.529887 -1.40276 0.750499
        0.467989 -1.53408 -0.38593
        -0.463044 -2.16114 0.3373
        1.02933 -1.88691 -0.320586