<?xml version="1.0" encoding="UTF-8" standalone="no" ?>
<VTKFile byte_order="LittleEndian" type="UnstructuredGrid" version="0.1">
  <UnstructuredGrid>
    <Piece NumberOfCells="0" NumberOfPoints="1764">
      <PointData>
        <DataArray Name="velocities" NumberOfComponents="3" format="ascii" type="Float32">
        -0.693768 -0.775189 0.413709
        -0.832516 -1.28704 -0.132616
        1.23568 -0.706975 -0.406329
        1.15029 -2.95115 -0.00627554
        0.550044 -1.09432 -0.0487042
        0.144057 -1.43403 0.0758315
        0.673545 -0.930805 0.0426433
        -0.152845 -1.92413 0.399382
        -0.0553032 0.0761012 0.770938
        0.324865 -1.19927 0.428207
        0.95183 0.191282 0.21728
        1.08973 -1.43816 -0.211108
        -0.487041 -2.12974 0.59699
        0.0543388 -1.29611 0.648462
        -0.696474 0.120695 -0.329681
        0.109928 -0.889359 -0.970828
        -0.420113 -0.993668 -0.102997
        0.186936 -1.24538 -1.15719
        0.01405 -1.05311 1.31259
        0.380629 -1.18939 2.15382
        0.43038 -1.75098 -0.255239
        -0.0299164 -2.21506 -0.449665
        0.330356 -1.03693 0.74309
        -0.144805 -0.519295 0.814687
        1.04208 -1.82407 -0.514115
        0.0455826 -2.10425 -1.17924
        0.279412 -0.794259 0.252873
        -0.97752 -1.58109 -1.16477
        -0.25085 -1.64817 -0.0134423
        0.690411 -1.85315 0.399979
        0.0822972 -1.82653 0.00529549
        -0.733991 0.0962623 -0.521571
        -1.28806 -1.31433 -0.000450166
        0.600346 -1.55498 0.0888026
        0.638186 -1.40806 -1.11432
        0.276765 -1.69314 -0.418693
        0.506809 -1.84995 -0.387481
        -0.0384849 -1.68732 -0.00919964
        -0.526653 -0.475463 0.345061
        -0.597419 -2.10002 0.13006
        -0.794929 -1.72347 0.252249
        2.04254 -0.0131229 0.207321
        0.222273 -0.858514 0.811199
        0.383308 -2.00684 -1.20278
        0.576957 -1.79718 -0.330143
        1.81004 -0.140162 0.93562
        0.289559 -2.72341 0.681514
        -1.1639 -1.08246 -1.02506
        0.264384 -1.3908 -0.835875
        -1.43533 -1.34185 -0.759361
        -0.0684535 -0.908913 0.125231
        0.177667 -1.72874 0.492066
        0.264295 -1.98408 0.245996
        -0.866772 -2.85714 1.02801
        -0.546946 -2.01939 0.388361
        1.07412 -0.679437 0.39256
        0.0843086 -0.855294 -0.823939
        2.09106 -1.27496 1.13018
        -0.480068 -0.61337 0.364103
        -0.873076 -0.837628 -0.507337
        -0.767209 -2.01617 -0.392486
        0.482904 -0.497697 0.340781
        1.19522 -0.444187 -0.0959557
        0.280244 -0.386191 -1.38252
        -0.115445 -0.871351 0.222315
        -0.268323 -0.954432 0.530675
        0.839197 -0.47087 0.003135
        0.126942 -2.04176 0.480333
        0.520529 -0.926389 -1.09761
        -0.552126 -2.15886 0.565672
        0.33879 -1.24161 -0.973052
        0.0801002 -1.23346 0.0371908
        0.555116 -1.28031 -0.814111
        0.820333 -0.905994 1.06846
        1.18274 -1.14835 -0.796412
        -0.744775 -3.01359 0.612409
        0.752685 -1.08049 -0.643825
        -0.549158 -1.69116 0.153222
        0.057483 -1.7802 -0.853719
        0.212939 -1.78658 -1.67435
        0.357417 -0.840757 -0.778318
        -0.477867 -0.940923 0.0271249
        0.740123 -2.30759 -0.364606
        0.978551 0.0468099 0.302306
        0.0562183 -0.335761 0.269076
        -0.766761 -1.82385 -0.235514
        0.60383 -2.09747 -0.0282889
        0.422212 -0.610855 0.473799
        0.750806 0.0159045 -0.842082
        -0.136755 -1.47445 1.12597
        0.136024 -2.3837 -0.98983
        -0.0469361 -1.45166 -0.255527
        -0.683727 -0.0278363 0.17573
        1.17227 -1.60407 0.0165362
        -0.0201506 -1.92845 -0.693901
        -0.0642483 -3.52035 0.0123354
        0.154168 -0.954024 0.943227
        0.465522 -0.61868 0.268372
        0.389449 -1.80547 0.679191
        -2.64411 -0.588905 0.431415
        0.901491 -0.845091 0.737861
        0.74834 -1.19743 -0.597268
        0.0346047 0.105453 -0.189273
        -0.0337686 -1.16882 1.27426
        -0.106823 -1.47983 1.4979
        0.22671 -0.512903 0.815379
        0.332792 -0.758548 -0.0830662
        0.257122 -1.9851 0.415288
        -0.158183 -1.4259 -0.428873
        -0.0795594 -0.958092 -0.798003
        1.10622 -0.778633 -0.730738
        0.408726 -1.40093 -0.220305
        0.63269 -0.979496 0.0739901
        -0.67244 -1.04255 -0.156244
        -1.17743 -0.935277 -2.09857
        -0.154093 -1.49704 -0.320152
        -0.488808 -2.59141 0.601835
        0.396342 -2.1136 1.04252
        -0.481504 -1.55562 0.835205
        -0.0574005 -0.74677 0.992722
        -0.72343 -0.538869 -0.0643755
        0.0262845 -1.65517 -0.084787
        0.636483 -0.150221 0.2617
        -1.21313 -0.945871 -0.0209715
        -0.0651346 -1.12159 0.764144
        -0.30536 -1.66698 -0.513658
        0.72341 -0.139412 0.989713
        -1.53126 -1.63222 -0.334395
        0.859756 -1.26103 -0.818832
        -0.683622 -0.0757068 0.292394
        0.0855972 -0.569104 -0.25374
        -0.80321 -2.39635 -2.29032
        0.11715 -1.21635 0.245176
        -0.0890803 -0.0699333 -0.754377
        0.0272322 -1.64534 1.14311
        0.384858 -0.837927 -1.11305
        -0.751445 -0.807408 1.16944
        0.662122 -0.930385 -0.451633
        -0.698228 -0.375893 0.711862
        0.667385 -1.00733 -0.255509
        -0.759687 -1.90149 0.0602203
        -0.218043 -1.13889 -0.613586
        -1.43287 -0.0558413 0.310134
        -0.662624 0.613767 0.295943
        -1.24229 -0.7763 0.203139
        0.0219872 -0.000910871 -0.99517
        -0.250005 -1.37418 0.452377
        0.01688 -1.16015 0.0637136
        -0.879833 -1.26916 0.010607
        -1.28351 -0.76755 -0.725157
        -1.03303 -0.943207 -0.457549
        -0.585861 -0.38765 0.666905
        -1.37373 -0.542676 0.0905057
        0.199441 -1.8352 -0.219385
        0.150341 -0.984772 -0.605678
        0.547064 -1.00777 -0.591123
        -0.141108 -0.386112 -0.504182
        -1.09411 -0.878019 -0.0617628
        0.0826635 -1.43718 0.586813
        -1.33835 -0.619615 -0.712739
        0.370015 -1.34003 1.87968
        0.0953886 -0.565724 -0.535531
        -0.370654 -1.06667 0.938318
        -0.211549 -0.691405 -0.638432
        0.0155427 -0.249241 0.587939
        0.156127 -0.602841 0.386271
        -1.0153 -0.0689509 0.58748
        -0.187918 -0.594593 0.0522752
        0.612417 -1.51002 0.830878
        1.29971 -1.50753 0.787772
        1.26924 -1.04718 -0.833635
        -0.301599 -0.149388 -0.603874
        -0.68546 -1.32396 -0.252368
        0.105944 -0.407694 -0.441757
        -0.657347 -0.589313 1.06128
        -0.865262 -1.86875 1.01989
        -1.82862 -1.17455 -0.140504
        1.17875 0.399239 0.793679
        0.0202457 -0.648921 0.528755
        -1.24876 -0.774761 1.60524
        -0.208241 0.244906 0.0307507
        0.0263659 0.973552 0.844127
        0.109967 0.942586 0.454757
        0.327118 0.356951 0.651405
        0.474886 -0.209906 0.863347
        0.961349 1.14111 -0.449221
        0.0839887 0.687801 0.0290225
        -0.0597991 0.342342 0.996988
        0.713689 0.934699 -0.383394
        -0.439269 0.142209 -0.727816
        -0.995802 0.485989 0.349391
        -0.975066 0.0339592 -0.0115715
        0.342016 0.535192 0.318359
        0.307828 -0.0158595 0.257848
        -0.413164 1.02995 -1.05759
        -1.19985 -0.484293 1.38626
        0.166863 1.17157 0.416773
        -0.494176 1.16005 0.0509783
        -0.348107 0.509765 1.08664
        0.94878 2.04968 0.730944
        -0.436906 1.55558 0.202989
        0.885871 -0.0518429 0.0734748
        -0.262848 1.33489 -0.0846382
        0.226483 0.678433 0.933133
        0.392694 0.808673 -0.450006
        0.92915 2.74079 1.11293
        -1.26882 1.46257 -0.103213
        -0.0508216 1.91315 -0.648695
        -0.440285 1.49564 -0.474358
        0.444372 0.99946 0.387157
        -0.880427 1.41337 -0.753544
        0.252787 0.605173 -0.258116
        0.00297672 2.03025 -0.250184
        -1.35509 2.10325 0.280653
        0.908549 0.998438 0.394146
        0.439266 2.5112 0.441382
        0.045258 1.17737 -1.5785
        -0.156203 -0.648983 -0.0243217
        1.18566 0.731998 -0.186157
        -0.00691864 1.86992 -1.23911
        -0.282647 1.7556 0.802947
        -0.499077 0.912966 0.0148513
        -0.731847 1.1549 0.876654
        0.271755 0.718542 0.364956
        1.68959 0.655812 -0.756273
        1.48059 1.78134 -0.523495
        0.305743 0.690337 0.217348
        0.113978 2.40666 0.556294
        -0.00976088 0.276454 0.233658
        0.0137479 2.35909 -1.36294
        0.226914 1.96282 -0.0212719
        -0.15716 2.70693 0.195003
        -0.298258 0.4107 -0.238773
        0.296401 2.11052 0.211426
        0.702806 2.53791 0.0785977
        0.0409415 1.38309 -0.765345
        -1.9005 1.72436 -1.02119
        -1.13796 2.56038 0.571112
        -0.546101 0.870487 -0.720986
        -0.731942 0.651735 0.809666
        0.277781 -0.0168395 -0.580779
        -0.415616 1.82223 -0.435126
        -0.410433 1.77348 -0.250091
        -0.499406 2.11374 0.158022
        0.351341 0.319955 -0.640532
        -2.39139 0.749924 0.453383
        0.790051 0.995108 -0.4815
        0.352742 1.24505 -0.275029
        0.0660214 0.268717 0.971014
        -0.00779173 0.524177 -0.340706
        -0.272957 1.84287 0.247188
        -0.893815 1.40233 -1.21193
        0.433534 2.22581 -1.03763
        1.64492 1.05818 0.326002
        0.0335655 2.13523 1.35734
        0.162783 1.65347 0.0853875
        -0.142312 2.27503 0.0220913
        1.56271 0.486537 0.590536
        1.59305 1.60186 -0.0726609
        -0.25721 2.39655 0.22684
        -0.700404 1.56295 -1.21941
        -0.260558 1.22359 0.338819
        0.397613 1.75259 0.240188
        -0.529872 1.77379 -0.0600409
        0.307256 2.53481 -0.0576385
        0.735023 1.97883 0.103813
        -0.250827 0.607924 -0.136638
        -0.234608 2.62729 0.0572779
        0.0173035 0.602646 0.235862
        0.958114 1.68215 -0.287582
        0.470371 0.629083 0.58148
        1.08367 0.987066 -0.101788
        0.475092 1.7765 -0.392853
        0.0414631 2.26187 0.432797
        -0.189114 1.52328 -0.538819
        -0.603038 0.385863 0.452415
        0.266758 0.369547 0.99714
        1.18571 1.46209 0.324483
        -0.210445 1.6501 0.0555747
        -0.896962 1.85821 1.11657
        1.16068 2.83873 0.00419485
        -1.16977 0.673572 -0.502439
        0.672616 1.35076 0.305354
        0.0683958 0.232055 -0.65237
        0.720477 2.83947 0.151343
        -0.248878 2.20484 0.11489
        -0.861692 0.374462 0.242619
        -0.567596 1.74531 0.340368
        1.05534 1.14899 -0.51304
        -0.0411331 -0.522392 1.28954
        0.44012 1.77379 -0.114337
        0.0648841 1.41778 -2.07093
        -0.5928 0.959879 0.569645
        -0.025747 2.02702 -0.579497
        -0.0808595 1.69285 0.727829
        0.709571 3.00126 0.257986
        -0.170945 0.167291 -0.221262
        -0.578755 1.55315 1.21266
        0.359274 0.916716 0.987258
        -0.683329 0.991475 0.684044
        0.567683 1.46724 0.928681
        0.860567 0.936453 0.994624
        -0.463425 1.34467 -0.108347
        -1.42129 0.330838 -0.898784
        -0.52299 1.44708 0.423586
        0.524185 1.18924 -0.543972
        -1.14462 0.847749 0.372121
        0.988256 1.685 -0.862923
        0.368042 0.611347 0.0438439
        0.737155 2.85805 -0.700805
        -2.05554 2.55388 -0.752307
        -0.313533 0.36769 -0.233904
        -0.698421 0.664768 0.73653
        -0.0807517 2.38448 1.59964
        0.165624 0.351792 -0.0413925
        0.122484 1.22448 -0.0248559
        0.471132 1.22808 0.0855752
        -0.314644 1.60698 -1.11105
        -0.762934 1.62216 -0.220397
        -0.284766 1.32235 -1.22923
        0.53533 1.49665 0.377038
        0.163736 2.639 -0.808203
        -1.60412 0.936126 0.350251
        -0.952919 1.40427 -0.925626
        -1.21822 2.26544 1.42347
        -0.590163 0.308981 -0.250698
        -0.142411 1.28296 0.709887
        -1.08046 0.471144 -0.360201
        -0.458111 0.854972 0.576486
        -0.324479 2.85175 0.640217
        0.596934 0.0973441 -0.0723224
        0.632348 2.5408 0.181774
        -0.568468 0.976173 0.504286
        -0.0298722 1.13702 1.13781
        -1.1247 1.28367 -0.461815
        -1.10405 2.07024 -1.16168
        -0.11209 0.824769 -0.363045
        -1.19629 1.23404 -0.748699
        -1.34481 1.69054 -1.49303
        -1.08982 1.21016 -0.325852
        -0.494687 2.22275 1.16801
        -0.230589 2.0028 -0.258818
        -0.746677 0.968345 0.926302
        -1.07467 0.491775 0.0601021
        0.0708811 1.74661 -0.909681
        -1.01522 3.06334 -0.916689
        -0.577732 1.78405 0.486443
        -0.776292 2.64418 0.830142
        -0.495838 -0.12789 -1.27835
        0.651488 0.793228 0.236974
        1.289 1.50041 -0.298928
        0.180729 2.02366 0.247799
        0.0563945 1.38601 -0.449805
        0.547249 1.79409 -1.20985
        1.31329 1.91214 -0.308098
        0.95158 1.08122 0.199565
        0.300793 0.606938 0.612142
        0.983417 1.30315 0.428311
        -0.369453 2.3081 -0.474034
        0.230666 0.445071 0.0360551
        -0.169347 0.997101 -0.00162913
        0.611557 1.15524 -0.153787
        -0.380507 2.03701 0.0643011
        0.239067 2.7817 0.700833
        -0.635549 1.00601 -1.56358
        0.548916 0.416222 0.335384
        -0.430806 1.15659 -0.886474
        0.443356 1.4619 0.733151
        1.50006 2.43722 -0.0476524
        0.0879515 1.13501 -0.74516
        -2.33233 2.77884 1.8887
        0.129856 -1.73171 0.780477
        -0.448606 -3.22259 -0.822638
        1.00817 -1.07105 -0.581986
        -0.576809 -0.83424 0.0914892
        1.2486 -1.98147 0.0081036
        0.932029 -1.19916 -0.441938
        -1.68994 -1.09087 0.335824
        -0.258196 -1.51997 -0.486897
        -0.34243 -0.486681 0.0839519
        -0.733347 -0.797826 -0.310841
        0.743728 -1.46345 0.784294
        -0.822755 -3.13839 0.0228567
        1.36739 -1.52682 0.250119
        -0.00197152 -1.34058 -0.123274
        -0.803464 -1.09443 -0.289977
        -0.170001 -1.73628 -0.368267
        -0.367101 -1.5211 -1.00458
        -0.235116 -0.477238 -1.09518
        0.674823 -1.02065 0.329159
        1.68899 -1.12966 0.0608088
        -0.351521 -2.09736 1.33762
        0.419798 -1.7153 0.0955707
        -0.386601 -1.20326 0.56205
        0.0935425 -2.48638 0.438552
        0.304038 -1.87813 -0.408253
        0.135205 -0.834458 -0.0085873
        -0.640824 -1.42041 -1.21377
        -0.820892 -1.30899 -0.486255
        0.307865 -2.63581 0.847506
        0.263057 -1.25521 -0.87896
        -0.989815 -1.65948 -0.416854
        -0.354052 -1.28673 -0.313437
        0.520982 -2.45175 0.321474
        0.716247 -0.988305 0.130824
        0.507859 -1.60327 -0.0284302
        -0.958709 -1.38359 -0.411495
        0.196006 -1.30463 -1.52946
        -0.122777 -1.23705 -0.377414
        -0.337392 -1.86077 -0.0398805
        0.221165 -0.785551 -0.192398
        0.526605 -1.18818 -0.297453
        -0.418729 -1.26768 -0.229274
        -1.17125 -0.320801 -1.29781
        0.273345 -0.914991 -0.912379
        -0.950319 -1.38904 -0.551066
        0.549883 -1.58053 1.54364
        -0.940581 -1.51322 -0.535235
        1.5852 -0.259329 0.544669
        0.939362 -1.45734 0.153681
        0.983886 -0.781147 -0.586319
        -0.660981 -2.19697 -0.584856
        -0.183787 0.227679 0.553678
        -0.386172 -2.04821 0.0821301
        -1.12821 -0.477818 1.93094
        -0.170388 -2.25967 -0.210136
        0.19991 -1.31397 -0.139748
        0.0816849 0.29114 -0.178296
        -1.56497 0.149436 -0.630909
        1.24679 -0.795716 -0.83273
        -0.876489 -0.903763 -0.248464
        1.07728 -0.646741 -0.0227058
        -0.470599 -1.06349 -0.0820385
        1.41378 -1.0386 -1.04063
        0.740336 0.0363854 -0.820391
        -0.538481 -1.089 0.123094
        -0.101693 -3.56114 0.783871
        -1.40694 -0.518789 0.210288
        0.103948 -1.1037 -0.0468538
        0.367953 -1.50887 -0.143619
        -0.00567323 -0.861321 -0.795782
        0.304849 -1.02318 0.636493
        -0.650291 -0.24307 -0.388149
        -1.07138 -0.95842 -0.789978
        0.338542 -1.32443 0.130862
        -0.126089 -1.64395 -0.516694
        -0.280525 -1.38144 -0.865784
        0.763926 -0.572984 -0.855104
        1.20678 -1.95074 1.65662
        -1.03467 -0.796241 0.785824
        -0.015524 -1.67241 -0.332975
        -0.350599 -2.93302 -0.47471
        0.432448 0.0858696 0.125324
        0.18889 -1.46886 -0.0132713
        -1.23293 -1.77695 -0.67137
        -0.0256106 -1.54116 0.0220475
        1.56162 -1.26432 0.206113
        0.409351 -0.75645 -0.676304
        1.39954 -2.0461 1.03433
        -0.713715 -1.46995 -1.06217
        -0.883432 -1.28862 -0.396831
        -0.339937 -1.02635 0.748513
        -0.336576 -1.74886 0.558792
        -0.682083 -0.377358 0.377298
        0.0390206 -1.09673 -0.428798
        -0.127809 -1.58221 0.360477
        0.440745 -0.701016 -0.221899
        0.612012 -1.06786 -0.807305
        -0.192552 -0.851781 0.0187477
        -1.1918 -0.460778 0.209517
        0.256046 -1.34014 -0.39337
        -0.316678 -1.6294 0.8714
        0.883348 -2.09816 -0.30893
        -1.15967 -0.700301 -1.21914
        -0.47382 -0.00958832 0.0882087
        -0.294978 -1.35241 0.641488
        -0.745624 -1.26634 1.61948
        0.354693 -1.85168 -0.978235
        -0.349413 -0.983004 0.839584
        0.961527 -0.627058 -0.353098
        0.316014 -0.848197 -0.884611
        0.814017 -1.68824 0.013777
        -0.0396154 -1.45115 -0.913754
        -0.894351 -1.45237 0.152013
        -0.526312 -0.668054 -0.366758
        0.0772557 -0.653574 -0.370544
        -0.222626 -0.604823 -0.464027
        -0.341714 -2.43289 0.270333
        0.547338 -3.04472 0.660334
        0.0387626 -1.48758 0.245149
        1.26257 -1.7912 -0.548608
        0.618099 -2.03 0.656625
        0.100743 -1.41051 0.520808
        -1.35158 -2.00815 0.675027
        -0.637572 -0.74684 1.50438
        0.288136 -1.31859 0.781835
        0.0338206 -0.701258 0.550242
        0.967991 -2.09635 -0.456343
        -0.199591 -1.60452 -1.34908
        -1.42065 -0.456621 0.0147448
        -1.46502 -0.0833837 -2.26023
        0.966185 -0.638245 0.444008
        0.552819 -3.56956 0.25542
        1.0296 -0.294588 0.744306
        0.973497 -1.20586 -0.633274
        1.26507 -2.90258 1.00329
        -1.01033 -0.903529 0.626992
        0.434328 0.233723 0.162448
        -0.763166 -1.25809 0.762284
        1.03017 -1.48483 0.381587
        0.140552 -2.19895 -0.485211
        1.57505 -2.2462 0.624891
        -1.03383 -1.11037 -0.146663
        -0.141362 -0.882716 0.0600167
        -1.74951 -2.17891 -0.092936
        -0.226081 -2.24432 -0.659001
        0.00225168 -0.991391 -0.0878559
        1.79288 -2.99162 -0.106809
        0.128491 -2.99671 -0.3802
        0.446739 -0.890598 0.278972
        -0.148092 -0.831273 -0.125225
        0.507609 -2.83703 0.579912
        1.63908 -2.49592 -0.978318
        -0.125815 -2.86416 -0.0362219
        -0.158266 -1.30692 0.438789
        -0.648806 -1.76433 0.0246168
        -1.40114 -1.00078 1.00548
        -0.0451463 -0.210614 0.365204
        0.0693558 -1.23238 0.230724
        0.506313 -1.15826 -0.334776
        -0.0258307 -1.12503 -0.44451
        0.367129 -1.55713 -1.28458
        0.51525 -0.574453 -0.471258
        0.122332 -0.702529 -0.288507
        -0.442218 -1.7295 0.492939
        -0.12112 -0.30811 -0.49102
        -0.198588 -1.31933 -0.75009
        -0.886203 -1.1878 1.23194
        -1.96679 -1.82504 -1.09018
        -0.185572 -1.90529 0.62573
        -0.132474 -1.05831 -0.736748
        -0.406453 -1.12423 -0.39349
        -1.54162 -1.12026 0.0004488
        -2.11059 0.720483 -1.35697
        0.0233837 0.80699 -1.33555
        0.2604 -1.63107 1.2911
        -0.121526 -0.195983 -1.38208
        0.100594 0.0845903 0.74792
        1.01079 -0.968789 1.10629
        0.713389 -1.20368 -0.0709808
        1.14141 -1.44466 -0.997838
        0.0810294 -0.993906 1.58938
        0.23636 -2.76546 0.444683
        -0.490124 -1.68252 -1.01842
        1.23958 -0.763947 -0.898809
        -0.368988 -0.773345 0.401564
        1.55169 -1.4194 0.0518023
        -0.339734 -0.0521615 0.216193
        -0.139671 -2.00704 -0.786213
        -0.177525 -0.934261 -0.175474
        0.915431 0.0976685 0.0363465
        -1.29248 -1.71076 -0.249026
        1.28091 -0.177183 -1.83134
        0.417472 -0.301213 0.710236
        -0.959649 -1.43936 0.462452
        -0.651939 -0.544537 -0.237936
        0.308063 -0.0574893 -0.553383
        -1.04106 -0.951731 -0.00416684
        0.0459252 -0.278402 0.353173
        -0.400073 -1.18647 1.32181
        -0.390382 -1.08658 -1.02802
        0.227888 1.16027 -0.41259
        0.994033 0.974412 -1.04479
        0.0964526 0.723634 0.0919803
        -0.119079 0.165649 -0.854451
        0.613468 0.738261 0.516672
        0.23964 -0.354902 0.814203
        1.77279 1.24419 0.218261
        0.217972 -0.378037 -0.452407
        0.0854768 0.751707 -0.217552
        1.03179 0.859166 1.31382
        -1.02552 0.754787 0.850279
        -0.67867 -0.919775 -1.08923
        -0.426812 0.743937 -0.153323
        0.0360605 -0.0579587 0.285799
        0.96262 0.809459 1.27949
        0.356968 1.17981 1.25348
        -0.914511 0.521779 -0.058541
        -0.766912 -0.769285 1.37093
        -0.0590497 0.91604 0.0869399
        -0.295327 2.20796 1.1382
        -0.194882 1.15846 -0.0278884
        0.782022 0.458894 0.595864
        1.1327 -0.109164 0.18708
        0.0654042 0.762897 0.883974
        1.19024 1.9755 0.310611
        0.276506 0.447087 -0.137313
        0.177395 -0.179559 -0.331191
        -0.819445 1.87432 -0.561691
        -0.615661 1.09977 0.401463
        -0.107974 2.10601 0.627673
        0.455581 1.45286 -0.13896
        -0.316357 1.19265 -0.858495
        0.220577 1.60592 0.214193
        0.231649 1.98351 0.0207384
        0.551814 1.82396 1.35113
        -0.626395 2.11281 -1.23363
        0.452251 0.874784 1.17022
        0.790914 0.630375 -0.055016
        -1.78408 0.769124 0.810659
        -0.0835359 1.39465 0.218879
        -0.534874 2.32837 -0.761435
        0.411144 1.49963 -0.0703394
        -0.675035 0.381137 -0.0815268
        0.464382 2.48554 -0.272466
        -0.0530826 1.68125 -0.084339
        -0.390651 0.829915 -0.117
        -0.0926367 1.45884 0.51396
        0.729986 3.66337 -0.778951
        -0.678062 0.863212 0.432746
        -0.553203 1.71943 -0.310432
        -0.89451 1.13601 0.692581
        0.282338 2.23553 0.985134
        -0.333816 0.772933 -0.236338
        0.198991 0.818853 1.15541
        1.19256 0.696331 0.107853
        0.339266 1.08909 -0.217212
        -0.313051 2.25864 -0.173375
        -1.30943 1.23673 -0.0251492
        -1.00366 2.33177 -0.218891
        -0.410462 1.26785 -0.473617
        0.5242 0.785158 -0.0619286
        -0.521855 1.65293 0.372285
        -0.19739 1.05461 -0.140263
        0.510988 -0.50664 1.77844
        -1.59227 1.3379 0.00595237
        0.654726 1.6201 -2.04972
        -1.69197 0.956835 -0.783301
        -0.884824 1.17746 -0.51925
        0.139361 2.81869 -0.0194383
        0.221154 1.1915 -0.125859
        0.872995 0.753485 -0.513987
        0.118341 -0.0859984 -0.807994
        0.105179 0.265178 -0.445287
        -0.25248 1.41099 -1.35822
        -0.239447 2.31614 -0.953437
        0.198471 1.23992 0.372665
        0.0964488 1.16809 0.367125
        -0.580066 1.60157 1.12459
        0.144174 2.64866 -1.92848
        -1.21695 1.78033 -0.320827
        -0.291172 1.29643 -0.282153
        -1.40438 1.73742 -0.22612
        -0.370764 0.854697 -0.767986
        0.0332864 1.92416 -0.282226
        -0.492917 2.0244 -0.0381129
        0.0051678 0.619781 0.097612
        0.26612 1.8232 0.395769
        0.24212 0.601614 0.503853
        0.694059 0.895423 -0.969575
        -0.257297 1.34335 -0.505239
        0.506982 0.629975 0.155685
        -0.288499 1.4881 1.46716
        -0.704931 1.16192 0.436714
        -0.31884 2.27626 -0.882549
        1.1187 1.57009 0.872725
        1.14092 1.89717 0.734154
        -0.245438 1.60357 0.253613
        -0.119969 0.719514 -0.162559
        -0.117352 1.60299 0.215776
        0.100812 0.437298 0.0964036
        -0.309289 2.20747 0.480773
        1.60258 2.40491 -0.656612
        -0.117622 1.61084 -1.18807
        -0.264553 1.0406 -0.270354
        0.294324 0.31979 -0.548709
        -0.533131 1.52955 -0.192392
        -0.417483 2.64842 -0.0145405
        -0.442765 0.814384 1.26928
        0.451264 0.177507 0.815781
        -0.480407 1.77962 0.0744462
        0.90245 0.48161 0.267986
        0.131643 1.34438 -1.23872
        0.936245 -0.451532 -0.240093
        -0.90775 0.974778 0.384552
        -0.0216173 2.36445 -0.220874
        1.06681 0.583494 0.247469
        0.583277 0.708065 0.270823
        0.279695 1.84049 0.746436
        -1.41303 1.71083 -0.319473
        1.0247 1.15739 -1.41159
        0.0386629 3.26382 0.13858
        -0.506791 1.66746 -0.0099173
        0.359754 1.23482 -0.342032
        0.296738 1.90807 0.347107
        -0.950999 2.04092 0.663389
        -0.541314 0.718281 0.409326
        -0.685674 0.7704 1.43803
        0.374281 3.50247 -0.556138
        1.27199 1.51036 0.638621
        -0.878177 1.05943 -0.699453
        -0.109764 1.30759 0.176337
        0.945424 0.540126 -1.46393
        -1.11318 1.0294 1.53406
        0.540996 1.4996 0.97979
        -1.61872 2.41119 0.30813
        -0.299026 1.64595 0.394228
        -1.00581 0.485371 0.685502
        0.0736357 1.8878 1.07942
        -0.196615 1.10197 -0.022485
        -1.01737 0.660403 0.210164
        -0.0291548 1.03915 0.42285
        0.364547 0.833382 0.480625
        1.30571 1.59749 1.63378
        -1.06501 0.676297 0.286704
        -1.04447 1.03717 -0.521505
        -0.0357526 0.733913 -0.270188
        -0.787472 0.451915 1.09791
        -0.0512213 1.28096 -1.29571
        0.223325 0.460982 0.167957
        0.310945 2.40648 -0.861356
        0.697566 1.08633 0.112173
        -0.557018 2.29358 -0.88284
        0.765505 1.38795 0.862195
        -0.723182 1.49533 -0.0816086
        0.593439 0.803813 -0.587494
        -0.670612 2.07686 1.06912
        -0.830274 1.00322 0.750413
        0.0919164 1.01549 -0.467094
        0.93768 2.85896 -0.95752
        -0.546661 -1.21214 0.260088
        -0.346902 -1.85373 0.241899
        -0.637557 -0.337014 -0.512239
        -0.874417 -0.163647 0.248519
        -0.760087 -1.45975 0.0925182
        -0.426681 -2.43257 0.0897411
        0.244663 -0.99193 0.532051
        -0.695639 -0.55314 0.67572
        0.888682 -1.20445 -1.92949
        -0.765743 -1.38747 -0.86175
        0.087488 -1.63614 -0.557694
        1.06623 -1.1761 0.211091
        -0.224899 -1.28966 0.461526
        -0.084205 -0.927508 0.286377
        0.16775 -1.6248 1.1174
        -0.288057 -1.39557 0.151274
        -0.682198 -0.752003 -0.615777
        0.967149 -0.670461 -0.611523
        -0.100848 -0.463582 -0.704922
        0.42692 -1.13006 -0.286624
        -0.277963 -0.781843 0.77072
        0.189652 -1.1879 0.494863
        -0.14477 0.0914381 0.390675
        0.716217 -0.958497 -0.247003
        0.321858 -1.11605 0.798671
        -0.331967 -2.65693 0.458437
        1.43232 -2.65608 -1.18929
        1.36858 -1.30711 0.510192
        -0.52275 -1.27646 0.269636
        0.243562 -1.4204 -0.725054
        0.235291 -0.219749 0.511926
        0.746274 -3.16267 -0.0895217
        0.0642121 -2.24609 0.452946
        -0.289772 -0.138471 0.101767
        -0.132028 -1.62997 -0.06494
        0.324984 -0.0540426 1.02826
        0.516352 -1.69017 0.696647
        -2.04664 -0.7283 0.50909
        -0.166166 -0.414628 -0.219023
        -0.37081 -1.8142 0.136271
        -0.274785 -2.16012 0.711259
        -0.0567032 -1.08154 0.0970268
        -1.26297 -1.82651 0.387881
        -0.51352 -1.74878 0.50457
        -0.380446 -0.916023 -0.212761
        0.611938 0.416404 -0.364126
        0.407725 -1.11837 -0.0149538
        -0.0918234 -1.01538 0.467086
        -0.269855 -1.92127 -0.109022
        0.812651 0.605918 0.900855
        0.34182 -0.820734 -0.28264
        -0.389749 -0.80002 -0.772186
        -0.283294 -1.88012 -1.28265
        -0.0822235 -1.16017 0.862072
        -1.78321 -1.35779 -0.146269
        0.0413813 -0.704663 0.811761
        0.324105 -1.5796 0.0617533
        0.523875 -1.28533 -0.742275
        -0.252395 -2.2297 -0.12069
        1.01387 -2.31992 0.569868
        -0.334503 -0.906311 0.550372
        0.728456 -1.48112 0.0925832
        0.363134 -1.36137 -1.47329
        0.782128 0.00510943 0.0304575
        -0.156991 -2.2895 0.508127
        1.59878 -2.33727 -0.118026
        -0.63251 -0.253649 0.710681
        0.315313 -0.956789 -0.316326
        -0.222138 0.0180557 0.554029
        1.42022 -1.83594 -0.347003
        -0.185394 -1.2339 -0.913256
        -0.195502 -1.13193 0.144932
        0.60222 -0.00539547 0.47975
        0.0325025 -0.305069 -0.444497
        -0.145001 -2.23862 0.523569
        -0.0921672 -1.45758 0.210111
        -0.0680397 -1.33936 2.08281
        0.761716 -1.91365 -1.29282
        -0.124895 -0.974572 0.979242
        0.925638 -1.40378 1.62547
        0.828869 -0.885792 -0.0171289
        -0.769811 -1.81829 -0.0198303
        -0.0421299 -0.773918 0.575512
        0.20579 -1.24729 -0.165259
        0.375226 -2.4934 -0.519376
        -0.837758 -2.57217 -0.577002
        -0.24863 -1.1097 -0.403871
        -0.300291 0.563626 0.0188317
        0.849975 -2.80247 0.927223
        -0.86838 -1.85942 0.256234
        -1.24906 -2.24521 0.415072
        -0.640138 -1.49884 -0.893922
        -0.716222 -0.597442 -0.62987
        0.0711725 -2.04476 -0.213519
        0.0177512 -1.56096 -0.591131
        -0.200965 -2.59918 -1.9853
        -0.86807 -1.29808 -1.13985
        -0.188053 -1.02057 0.477999
        -0.706778 -1.45495 0.435966
        -0.220492 -1.60588 -0.214111
        -0.341232 -1.98982 -1.40176
        -0.285407 -0.976411 0.497429