<?xml version="1.0" encoding="UTF-8" standalone="no" ?>
<VTKFile byte_order="LittleEndian" type="UnstructuredGrid" version="0.1">
  <UnstructuredGrid>
    <Piece NumberOfCells="0" NumberOfPoints="1764">
      <PointData>
        <DataArray Name="velocities" NumberOfComponents="3" format="ascii" type="Float32">
        -1.02805 -0.656958 0.53674
        0.0531452 -1.91192 1.48159
        -1.7538 0.57868 -0.599077
        -1.23163 -1.57711 0.454292
        0.413632 -1.52339 1.06361
        0.965217 -1.23952 -0.67743
        -0.477946 -0.960963 0.950529
        0.895928 -1.65638 -0.796433
        0.330502 -0.287245 -0.18228
        1.36107 -0.910139 -0.543877
        -0.106182 -2.12043 1.22187
        -0.65198 -0.722097 0.810816
        -0.686675 -0.71365 -0.782049
        0.0297372 -0.898034 -0.400305
        0.578332 -1.66765 -1.55756
        -0.0865908 -1.64994 0.021435
        -0.175434 -1.34515 -0.0881207
        -0.982341 -1.1887 0.870186
        0.374231 -0.483022 0.236031
        -0.151371 -1.40682 0.434106
        -0.815014 -1.65712 1.03017
        0.629451 -2.02171 0.321151
        0.668376 -1.89274 0.148793
        -0.138917 -1.73148 0.643386
        -0.387129 -1.68417 0.111837
        1.65531 -1.0411 0.430927
        1.68911 -0.89324 0.59273
        0.307366 -1.8782 -0.598366
        0.50934 -1.60423 1.5319
        0.525771 -1.1188 0.177445
        0.739594 -0.490721 -1.44717
        -0.328935 -1.65083 -1.25162
        -0.982722 -1.7093 -0.303474
        0.0702666 -1.0396 -0.200276
        0.0636734 -0.505366 0.275642
        0.113352 -1.37861 -0.793397
        -0.0650595 -1.78346 0.836153
        0.572629 -1.18486 0.00824271
        0.155616 -0.779718 -0.41529
        -0.254122 -1.17766 0.716629
        -0.608658 -0.189063 0.112959
        -0.22526 -1.21849 -0.611616
        -0.60413 -0.0661219 -0.190043
        -0.33943 -1.15815 0.426723
        0.205535 -1.43334 0.50618
        0.0457914 -1.21865 -0.356666
        -0.0600067 -2.23514 0.130781
        0.0206219 -0.453639 0.366398
        0.219484 -0.988869 0.377644
        0.0669904 -1.49231 0.412532
        0.215891 -0.933278 0.0891587
        0.0703324 -0.380124 0.166609
        1.0829 -2.09757 0.463908
        -1.60593 -1.34741 -0.314708
        0.936049 -0.77571 0.392629
        0.665274 -1.60658 -0.694223
        0.66221 -1.10658 -0.243955
        -0.101824 -1.12564 -0.971039
        -0.148452 0.0616363 0.407384
        -0.0752255 -0.682513 -0.0843415
        -0.476512 -1.64028 0.578646
        -0.796785 -0.43715 0.597463
        -0.793091 -0.644455 -1.32645
        -0.115752 -1.35929 -0.189295
        0.0844784 -1.24062 -0.797429
        1.08412 -2.03041 -0.236158
        -1.2532 -1.30054 0.104274
        0.477486 -0.471723 -0.13898
        0.553787 -1.32669 -0.60156
        -0.953655 -0.540369 -0.203417
        -0.36702 -2.60346 -0.1213
        -0.644865 -1.30417 0.671069
        -0.921552 -1.16802 -0.757938
        -0.370849 -1.68201 -0.395219
        0.0870906 -0.451414 1.62629
        -0.24014 -1.84836 -1.29895
        0.930044 -0.163127 1.97197
        -0.151708 -1.71311 -1.27499
        -0.777084 -2.03497 0.810228
        -0.141414 -0.441973 0.339323
        -0.385198 -1.85733 0.0478288
        0.161132 -0.52995 -0.42837
        0.187516 -2.01843 -0.227645
        -0.967615 -1.07478 0.417192
        0.869596 -1.71602 0.0215988
        -0.46029 0.237448 0.133725
        0.0201021 -2.21816 -0.334433
        -0.640647 -0.681537 -1.06617
        -1.19969 -0.856384 0.440017
        -0.360915 -0.411694 0.547708
        -0.582007 -2.1297 -1.26497
        0.142999 -1.71744 -0.418705
        0.489098 -1.84541 -1.50849
        0.298394 -0.860062 -0.765543
        -0.068528 -2.03067 -0.756034
        -0.613771 -1.55981 1.00605
        0.884969 0.376079 -0.630737
        -0.533518 -0.798445 1.04508
        1.40712 -1.53719 -0.799906
        -1.62475 -2.65596 0.000173272
        0.522289 -1.14022 -0.409296
        -1.59087 -2.65576 -0.207017
        -0.719814 -0.637383 1.11276
        -0.482092 -1.63871 -0.458203
        0.119574 -2.1768 -0.35034
        1.05647 -1.51245 0.97299
        -0.442236 -2.20202 0.310715
        0.670256 -0.283347 -0.560578
        0.270319 -2.62435 0.525578
        -0.77923 -1.40415 0.186079
        -1.26123 -1.59969 0.74388
        -0.205193 -0.949799 -0.695673
        0.548105 -1.12439 0.231327
        1.05073 -2.27547 0.766046
        -1.06181 -1.51447 0.322835
        -0.353831 -1.28577 -0.745441
        -0.810353 -1.94552 -0.186893
        0.435618 -1.45144 -0.746226
        -0.822014 -0.912044 -0.0413216
        -0.260004 -1.9652 0.0423225
        1.34882 -0.979759 -1.82705
        0.261708 -1.54417 0.390552
        0.800622 -2.01032 -0.24163
        0.546989 -1.3074 -0.440179
        0.167095 -1.66198 0.00901124
        -1.46494 -0.746944 1.02479
        0.829525 -1.08038 0.350722
        1.2206 -3.2094 -0.610801
        -0.584177 -2.04669 0.449642
        -0.432832 -1.07604 0.155871
        -1.20988 -0.506251 -1.48605
        -1.00963 -2.05089 0.161514
        0.425606 -0.466383 0.325647
        -0.170408 -2.21782 -0.444
        0.16188 -2.65224 -1.00222
        -1.21567 -0.511506 -0.375172
        1.66193 -0.572123 0.0903081
        -0.400174 -0.533245 -0.182503
        0.0665727 -0.878324 0.101126
        0.269715 -1.92036 0.524946
        -0.370869 0.158995 -0.634862
        0.114026 -1.00016 -1.87403
        -0.992461 -1.55135 -1.72505
        -0.726125 -1.44597 0.126054
        -0.00425019 -1.17176 0.906416
        -0.0424699 0.157215 -2.25608
        -0.845229 -0.503611 0.913388
        -1.45826 -1.82511 0.422605
        0.146019 -0.948178 -0.407939
        0.576893 0.183873 0.584115
        0.386925 -0.176981 -0.292763
        -1.65272 -1.20654 -1.38557
        -1.21965 -0.894068 -1.57262
        0.526251 -0.939819 1.11968
        -0.168606 -1.76951 -0.888392
        -0.686128 -0.323992 -1.4146
        -0.251268 -0.329466 -0.442125
        -1.135 -0.406139 1.04082
        0.594192 -0.335689 0.670734
        0.133375 -0.914363 -0.212662
        -0.559806 0.792167 -0.769905
        -1.21414 -1.7155 0.426073
        0.0962083 -1.83851 -0.245021
        -0.429931 -0.0733276 0.760179
        0.381132 -1.57207 -0.433767
        0.336879 -1.72417 0.247306
        -2.64 -1.40958 -0.297885
        0.458064 -0.290448 0.453085
        -0.688686 -1.58327 0.144223
        0.663574 -0.275768 1.16748
        -0.974356 -1.0018 -0.839942
        1.03569 0.082562 0.467983
        0.396608 -0.298091 0.936649
        -0.655715 -2.10969 0.532208
        1.26924 -1.04718 -0.833635
        -0.797691 -0.115327 0.352435
        -0.261108 0.44791 -0.327699
        -0.860835 -1.74999 0.446079
        1.21748 0.449671 1.21003
        -0.649311 1.17799 0.589523
        0.659116 0.629073 0.166736
        0.317524 0.0764338 0.382284
        -0.493618 0.170464 0.827637
        0.495507 0.852617 -0.246419
        0.166475 0.850835 0.395388
        0.381499 1.25166 -0.112876
        -0.0853794 1.25253 0.666177
        0.0712212 -0.548832 0.167686
        0.973642 2.12904 0.805051
        -0.280479 0.894049 -1.69814
        0.864589 0.6585 -0.977809
        -0.295079 1.6358 0.000974063
        -0.42832 -0.525429 -0.156603
        -0.692903 1.55518 0.480878
        -0.560363 0.505047 0.0829841
        0.233058 1.19157 -0.0773159
        0.451811 1.36122 -0.564024
        1.7225 1.36923 0.0809043
        -1.25176 -1.00949 -0.289747
        -0.894042 0.528488 1.03125
        0.0737937 1.33161 0.576414
        0.00225997 0.337707 0.239661
        -0.82002 1.28146 0.399994
        -0.23536 0.823327 0.802635
        0.398719 0.33934 -0.0168182
        0.670305 1.72775 0.758693
        0.337457 2.01205 0.259658
        0.617599 1.62856 0.139538
        0.107813 1.02661 -0.369031
        0.868859 1.56761 -0.788648
        1.35246 1.85539 0.220841
        -1.01286 0.94658 -0.64722
        -0.634514 1.29368 0.422725
        -0.668094 2.27158 -0.843525
        -0.925167 2.18591 0.120707
        0.795724 1.79661 0.0187136
        -2.04262 2.41769 -0.506056
        -0.115831 1.14422 -0.870825
        -1.02567 1.42741 0.15256
        -0.433636 2.76577 -0.195846
        -0.0631601 1.1583 -0.332247
        1.39646 1.33586 -0.194973
        0.649142 1.11111 -0.598126
        -0.219754 0.099764 -0.0747031
        0.85501 1.72646 0.386242
        -0.76731 1.05773 -1.48443
        -0.359097 0.0226794 0.26446
        0.207909 2.2516 -1.11632
        -0.269539 2.30004 0.65017
        -0.990545 2.83679 -0.351976
        0.626114 1.17356 -1.05919
        0.565404 0.839794 -0.241574
        -0.155018 1.30401 -0.398071
        0.0931464 1.02994 0.368029
        0.686994 2.74454 1.48048
        0.0749705 2.02211 0.569774
        -0.246997 0.384389 0.2254
        2.01377 1.55503 -0.604645
        0.0632693 1.0139 -0.295616
        -0.133722 0.0762902 -0.106419
        1.47384 2.28634 0.432611
        -0.707111 1.96494 0.221523
        0.236756 1.97239 1.03459
        -0.363558 1.18112 0.107543
        1.61415 1.43536 0.0708034
        -1.51914 1.73552 0.194246
        -0.654248 2.27266 0.408845
        -0.33524 0.875513 0.0401728
        -1.09885 0.864876 0.0263592
        -0.241624 0.936028 -0.358252
        -0.890951 0.976604 -0.775542
        -0.766456 2.06362 -1.59632
        0.186022 0.613318 0.0575282
        0.633386 2.27382 1.25549
        0.341541 1.95268 -0.371625
        0.0592519 2.15574 1.12633
        -1.24464 1.54386 -0.35105
        -0.386931 -0.327207 -1.60459
        -1.45853 1.52623 -1.36636
        0.623428 0.60111 0.772126
        -2.33332 1.24471 0.355904
        0.174061 2.58181 -0.0882817
        0.250597 0.524306 -0.276254
        -1.43386 1.56343 0.644385
        -0.0118398 0.622323 -0.369545
        -0.746616 0.747442 0.0687293
        0.0111632 0.395837 -0.255586
        -1.09501 2.16317 -0.395084
        -1.09985 1.83907 0.596938
        0.330138 1.0404 0.196922
        -0.381833 2.19674 1.15199
        -1.41445 0.851347 0.198714
        0.601395 1.55579 -1.01033
        0.52425 1.67394 0.619488
        1.13876 1.41656 0.855373
        0.396524 1.81139 0.46677
        0.590651 2.49062 0.163766
        0.787529 0.374851 -0.259167
        -0.681672 1.68666 -0.711943
        0.475427 1.73416 -1.26402
        -2.30539 0.0770203 0.960241
        -1.73998 1.86461 1.46941
        -0.803507 0.50954 0.0707478
        -0.163676 1.54063 -0.442905
        -0.882465 1.40895 -0.0985813
        -0.188247 0.93626 -1.27104
        -0.653706 1.94349 -0.857213
        -0.0934842 0.0758569 -0.131126
        1.37556 0.882481 1.02713
        0.119406 0.785505 -0.107852
        0.282854 1.19787 -0.421163
        0.139743 1.12483 -0.590578
        -0.523896 1.77698 -0.157677
        0.318764 1.50356 0.0251596
        0.512597 0.44021 -0.482848
        0.388303 0.77978 -0.733492
        -0.075779 1.57616 -0.0388114
        0.0577461 1.40969 -0.459988
        0.651971 0.613874 0.0831821
        -0.398681 0.756904 1.0231
        -0.345047 1.47066 0.0999937
        0.174781 2.07463 -0.246702
        -1.18842 2.3293 0.583482
        -0.179803 1.18751 -0.251
        0.322093 1.78504 -0.228764
        -0.407427 0.8605 0.545845
        -1.59925 2.68067 0.619308
        -0.713737 1.01746 -0.10606
        -0.00461961 1.04894 0.759091
        1.10606 2.21434 0.123494
        -0.67346 1.36404 0.566821
        -0.0327714 0.761797 0.571571
        0.295866 1.20389 0.193386
        0.252115 1.31913 0.245381
        -1.01151 1.28671 -0.680184
        1.72876 0.336217 -0.427344
        -0.422295 0.930211 -0.871344
        -0.114543 1.85413 -0.614741
        -0.356278 1.9348 0.394058
        0.973892 1.40993 1.22773
        -0.785698 2.20328 1.01052
        -0.356231 1.94441 -0.760177
        -1.03254 1.84859 -0.445912
        -0.0277488 1.33632 0.474629
        -0.892625 1.43146 0.0616954
        0.38652 1.76752 -1.35108
        -0.161774 1.6903 -0.0428066
        -1.07096 1.93503 -0.070229
        0.768738 1.9495 -0.419781
        -2.00458 1.60508 -0.44291
        -0.430387 0.633641 0.285978
        -0.614953 1.34455 -0.0515514
        0.16242 1.45516 0.244861
        -0.0442766 0.92948 0.384192
        0.839742 1.98122 0.385432
        -0.27365 1.32189 -0.341511
        -0.345508 1.05935 -0.323951
        -0.908723 2.49452 1.02963
        -0.727636 1.43398 -0.432226
        0.67135 0.676124 0.464353
        -1.40311 0.958976 0.545269
        0.53439 0.349612 -0.865741
        -0.476912 0.680392 -0.298358
        -0.697747 -0.221769 0.275258
        -0.0266303 1.60286 0.163764
        0.41288 -0.211451 -0.398897
        -0.325275 2.27888 0.393071
        -0.160299 0.80058 -0.346373
        0.649314 -0.0215567 -0.641086
        1.28732 2.63827 0.195322
        0.756691 0.511846 0.970268
        0.190933 1.73581 0.0269903
        -0.480305 1.72771 -0.188954
        -0.890436 2.38437 0.0363405
        0.521059 1.30034 0.823836
        0.600752 1.13316 0.847257
        0.536424 1.9741 -0.136358
        -0.72453 1.09372 -1.22791
        -0.514523 1.2262 0.620805
        -0.967452 2.61873 -0.082588
        -0.550742 0.702745 0.758181
        -0.0070922 1.18521 0.808411
        0.8447 0.979518 -0.625989
        -0.456185 0.396126 -0.217408
        0.313614 1.0318 -0.25975
        -0.799993 1.96245 0.111406
        0.561322 0.178306 -0.821183
        -0.801527 1.52495 -0.470406
        -0.616292 0.108501 -0.491377
        0.273072 1.13422 -0.059818
        -0.555476 2.22779 0.775224
        -0.873394 1.31936 -0.269698
        -0.451766 1.99971 -0.519879
        0.56579 -2.17763 1.34907
        0.670729 -0.304346 -0.905744
        -0.696812 -1.03519 0.339991
        -0.0797093 -1.36017 -0.154254
        1.08453 -0.184206 -0.376665
        -0.711983 -2.48757 -0.72532
        -1.16149 -0.607184 -1.17526
        0.227094 -0.988374 0.615454
        -0.691866 -0.772781 -0.329954
        0.183705 -1.54696 0.0320654
        -0.0105967 -1.94639 -0.671638
        -1.10906 -1.17974 0.794136
        -0.077515 -0.783509 0.382359
        0.233747 -0.296585 0.428881
        -0.440414 -0.400565 0.324994
        0.492532 -1.21883 -1.10182
        -0.750784 -1.6497 0.650108
        -0.16024 -1.48514 -1.44605
        -0.345349 -1.54621 -0.507587
        -0.444792 -0.708431 -0.746007
        0.791668 -1.73765 0.973616
        -1.21586 -0.976233 -0.0374943
        -0.584393 -0.877902 0.193815
        -0.15044 -0.911621 0.68268
        0.873121 -1.33486 -0.26827
        0.21141 -2.40287 0.893774
        -0.593179 -1.16826 1.25296
        -1.01435 -0.416798 0.141708
        0.810872 -1.13186 -0.743741
        -0.383017 -1.05939 -0.308033
        -0.581898 -0.228521 1.37369
        -0.025852 -1.62644 -0.644557
        -0.767566 -1.48914 -1.42625
        0.722464 -1.51469 0.16728
        -0.0341793 -1.27923 -0.26699
        -0.838092 -2.83557 0.116298
        -1.07354 -1.03505 -1.07914
        -0.819328 -0.913987 -0.299993
        0.427183 -1.81513 -1.06787
        -0.200388 -2.65966 -0.943738
        0.337422 -1.05051 -0.581733
        0.815578 -0.590336 0.919913
        0.11147 -0.358663 -0.397651
        0.0802259 -0.610871 -0.332114
        0.255902 -1.12028 0.523187
        0.865121 -1.17135 -1.08939
        -0.444637 -1.67792 -1.14547
        -0.0630118 -1.30505 -0.501334
        -0.100616 -1.74149 1.28469
        0.203446 -0.925184 -0.138921
        0.715012 -1.84268 -0.391622
        -1.55369 -2.17077 -0.829985
        1.02924 -1.6032 0.163284
        2.35103 -1.06364 1.42562
        -0.389091 -1.6802 -0.122676
        -0.258988 -0.0773808 0.784273
        0.810923 -1.37224 -0.652688
        -0.104067 -1.3209 0.362704
        0.449172 -1.4856 -0.419315
        1.23567 -0.697844 -0.652107
        -0.177947 -1.90854 0.635005
        0.00652799 -1.91588 0.638534
        0.616294 -1.39166 1.62565
        -1.32845 -2.29061 -0.220745
        -1.04624 -2.40271 -0.586067
        -0.0856681 -1.39913 0.305255
        -0.266886 -1.67298 0.213685
        -2.03865 -1.84081 0.763906
        -0.858249 -0.817532 0.220467
        -0.680322 -1.55351 -0.797549
        -0.73188 -0.77651 -0.0204756
        0.18872 -2.12586 0.44733
        -1.10714 -1.44004 -0.0627423
        0.938343 -0.938933 -0.68003
        -0.839755 -1.13489 -0.991674
        -0.340722 -1.81008 0.566374
        0.539112 -0.62813 1.78158
        0.663507 -2.02747 -0.35612
        1.25928 -1.60053 -0.12889
        0.880922 -0.785169 0.563717
        -0.398292 -0.0133073 -0.218519
        -0.757902 -1.58527 0.0133523
        -0.717337 -0.361205 -0.276781
        -0.295015 -1.98119 -0.662176
        0.26505 -0.764643 0.347865
        -0.472112 -1.67623 0.191798
        0.32977 -0.689438 -0.0699308
        0.397101 -1.61804 0.304154
        0.50056 -2.65824 0.412978
        0.030588 -0.772388 -0.142848
        0.61416 -1.02698 0.380535
        -1.03095 -0.797032 0.183334
        0.991583 -0.324686 -0.284577
        -0.650857 -1.94504 1.72534
        -0.673628 -1.06141 -0.0408067
        0.538688 -0.339382 0.687233
        -0.0304172 -0.383129 0.216755
        -0.291094 -1.55565 -0.197118
        0.177339 -1.7094 0.833867
        -0.193256 -2.20725 0.343437
        0.775351 -1.95299 1.04139
        -0.305214 -0.14456 -1.00188
        -0.442002 -1.32592 0.53912
        0.894691 -1.10219 -0.499974
        -1.10318 -2.75079 -0.22798
        1.65066 -1.92905 0.863779
        -0.719296 -0.28462 -0.0405116
        -0.00432068 -0.930079 -0.24498
        -0.0961645 -1.68694 -0.340623
        -0.731643 -2.44667 1.05422
        -0.154272 -0.888173 -0.237574
        -0.174081 -1.1696 0.409309
        -0.2382 -2.15565 -0.187883
        0.669897 -2.35961 -0.376522
        0.598725 -1.81565 -0.665904
        0.148165 -0.183708 -1.29757
        0.296269 -1.60698 0.909004
        0.612775 -1.01699 -0.0591892
        0.786746 -2.25084 -0.362477
        -0.382225 0.029759 0.4585
        -0.248462 -1.59033 -0.357632
        0.435823 -0.768678 0.298428
        0.76834 -3.36043 0.486182
        0.455015 -0.0713728 -0.857852
        -0.0571362 -2.53792 -0.112696
        -1.24678 -1.0892 -0.573544
        -1.36926 -0.764276 -0.436148
        -0.502088 -2.09596 0.727782
        0.655007 -2.00172 -0.262027
        0.836272 -1.82051 0.856947
        -1.00208 -1.38707 -0.563733
        1.68475 -1.77581 0.126285
        -0.553112 -0.841928 -1.47007
        0.792921 -1.09223 0.603786
        -1.37604 -0.777336 0.526712
        0.347949 -2.55583 -1.58696
        0.902044 -2.59061 0.34326
        1.82354 -1.18276 0.200536
        -0.513486 -0.201775 0.916841
        -0.520193 -1.46029 0.855964
        0.680452 -1.66548 0.211343
        0.763368 -1.78154 0.433702
        -0.883035 -1.32665 -0.424925
        0.223657 -0.436689 1.37269
        0.231358 -2.71992 -1.20969
        1.0809 -1.93321 -0.495423
        0.421784 -1.20444 0.865785
        -1.29176 -0.942773 0.442306
        1.50863 -0.585867 -0.244422
        0.722591 -1.70966 -2.14682
        -0.355767 -1.04924 0.019047
        -1.25354 -0.247769 -0.13441
        0.143154 -1.06639 -0.646915
        -0.82365 0.25376 0.151989
        -0.333287 -1.09871 1.23864
        -2.14443 -0.408418 -0.31887
        0.00700302 -0.978027 -0.151151
        0.93965 -1.57949 -0.312115
        0.158159 -1.50304 -0.0401818
        1.12112 -1.01517 -0.968696
        0.0217555 0.136625 -0.315971
        -2.19213 -1.43663 -0.405467
        0.320111 -2.52628 0.618586
        -2.28758 -1.20181 -0.0338003
        0.270502 -1.78605 -0.695726
        0.594851 -0.48468 -0.12494
        0.831369 -1.06495 0.351899
        -0.222823 -2.21977 0.148336
        0.78945 -2.60851 0.352912
        -0.642644 -2.58123 -0.216868
        -0.0343382 -0.358353 1.81113
        -0.959247 -0.930043 0.463523
        2.60213 -1.98044 0.847757
        0.029015 -0.939509 -0.401307
        1.07709 0.0716928 0.139126
        0.0417993 -2.24423 1.04835
        -0.211628 -1.01113 0.978393
        -0.0834869 -1.13375 -2.13733
        -1.38817 -0.580368 -0.80226
        0.777608 -0.372016 -0.150361
        0.144562 0.851336 -0.243934
        1.45141 -0.975654 0.401486
        -0.0288527 -1.24628 -0.197748
        -0.993439 -0.917712 1.05809
        0.174941 0.217283 -2.14428
        -0.989007 -1.08669 0.289188
        -0.58004 -1.17116 0.55297
        -0.289322 -0.504039 0.513178
        1.01079 -0.968789 1.10629
        -0.6416 -1.13951 0.987043
        -1.33298 -0.446572 0.468886
        -0.583513 -0.985041 1.24226
        0.933584 -1.90456 0.339458
        -0.261367 -0.769106 -1.52276
        -0.99588 -1.68389 0.667206
        -0.676208 -0.990894 -0.565469
        1.48478 -0.915428 -0.100077
        1.24232 1.04438 0.236095
        0.302098 0.791866 0.24718
        0.0731459 -0.614435 -0.889954
        -0.223037 0.426505 -0.388917
        2.55557 0.614377 0.0788573
        -0.363504 -0.188896 0.849937
        -0.827463 0.0565627 -0.461256
        0.0484985 1.04565 -0.268505
        -1.59828 -0.114113 0.126535
        0.188695 1.33277 0.897803
        -0.255541 -1.04959 -0.207155
        0.47107 0.633182 -0.147358
        0.0220191 0.448296 1.39222
        0.100918 1.31966 -0.0682085
        0.467398 0.749234 0.943061
        0.33737 0.489002 -0.497352
        0.891526 -0.0801997 0.0431343
        0.555105 1.13377 0.953864
        -0.533306 0.657664 -0.42036
        -0.218939 1.22795 0.121781
        -0.545127 0.189003 1.42425
        0.330589 1.21804 0.459752
        0.57361 1.44944 -0.797516
        -0.661518 -0.736388 -0.368871
        2.03884 0.658414 0.701116
        -0.240414 1.2407 -0.810561
        -0.412878 1.9911 0.720986
        -1.3533 0.719512 2.38064
        -0.421375 1.1807 1.75908
        0.984524 0.987997 -0.00734022
        1.1722 1.46512 -0.615706
        0.914166 2.0422 0.386845
        0.52485 1.38573 1.18505
        -0.294997 1.56908 -0.629362
        0.210944 1.12053 1.68562
        -0.558205 1.2121 0.238674
        0.520025 1.26583 0.208228
        -0.374647 2.65584 0.114259
        0.520552 0.953609 -0.955735
        0.672037 2.15586 0.977743
        -0.618816 1.63326 -1.54469
        1.3063 1.60077 -1.69045
        -0.837381 1.90217 -0.563196
        -0.374318 1.47169 -0.507146
        -0.376129 0.557768 -0.999259
        0.232646 2.07644 0.381816
        0.348586 1.6221 -0.0484862
        0.735324 1.48115 0.0419578
        -0.259683 1.34887 0.205194
        0.825462 0.954706 -0.458574
        -0.717345 1.19279 -0.682667
        0.388687 1.39851 0.546316
        -0.88022 -0.159179 0.569109
        -0.44112 2.24429 0.0501086
        0.571857 1.2675 -0.798422
        1.51281 1.91626 0.848332
        1.08794 2.28657 -0.936593
        0.495263 1.44838 -2.20938
        0.139036 -0.110767 1.19122
        -0.0127904 0.661577 0.0782004
        0.688833 1.08759 -0.0294339
        0.124987 1.10862 -0.931768
        -0.433985 1.95016 0.775994
        -0.562662 1.28086 -1.07067
        0.765826 0.92079 -1.13392
        0.0101168 2.08524 1.0369
        0.0941579 1.31001 0.429562
        -1.09753 1.69585 0.789121
        0.242285 2.09665 1.41977
        0.681799 1.86901 -0.379613
        -1.00674 2.11308 0.425177
        -0.714038 0.725222 0.640858
        -0.744495 0.0837689 -0.345485
        -0.453367 1.71244 0.410969
        -0.427541 1.25314 -0.741175
        0.285581 0.682111 0.873537
        0.76614 2.01142 -0.701094
        0.601555 0.357033 -0.737322
        -0.44956 2.21848 -0.217597
        1.16213 0.971345 -0.276626
        -1.38511 2.1539 -0.125448
        -0.541955 1.72276 0.0598941
        0.779823 0.761061 -0.410132
        0.0779806 0.615754 -0.51891
        -0.309076 2.28801 1.16704
        0.336156 0.432333 -0.320418
        -0.293063 0.380624 -0.365008
        0.415289 2.68003 -0.275464
        0.538445 1.34228 -0.929804
        -0.999235 2.03097 -0.499451
        -0.768838 1.58315 -0.30861
        -0.0727905 0.161778 0.122794
        0.0918832 0.626806 -0.179752
        0.298732 0.225658 0.67245
        -0.534233 1.30173 -1.45041
        1.51778 1.22012 0.674128
        -0.229901 3.01845 0.460564
        -0.327953 0.99465 0.142489
        -0.184887 1.00244 -0.946696
        0.465754 1.21383 -0.735924
        0.778506 0.962419 -1.00216
        0.0861488 -0.241899 0.444138
        0.611432 1.14907 -0.294227
        -1.0007 1.22573 -0.873491
        0.733691 2.55607 -0.647789
        -0.647522 2.17324 -0.313564
        -0.0377099 2.09385 0.396487
        -0.712292 0.985803 0.531766
        -0.407176 2.02963 1.39478
        -0.114243 0.94089 0.152683
        -0.0848454 0.320394 0.556346
        0.138886 0.900109 -0.54594
        -0.39636 2.46728 0.298341
        -1.20173 1.93255 0.365996
        0.741849 3.0554 -0.0380947
        -0.193294 1.85792 0.538479
        1.41171 1.36554 -9.66175e-05
        0.705286 1.86503 0.766787
        0.00375054 2.66024 0.484083
        -0.880231 0.950885 0.277365
        0.45154 0.860552 0.456623
        0.280891 1.17978 -0.227615
        -0.941921 1.22387 0.0970325
        0.508765 0.892255 -0.322033
        -0.499985 2.79379 -0.754485
        -0.0972428 1.89349 0.3149
        -0.424643 1.63141 0.0704418
        -0.566 2.72011 1.89699
        0.542596 2.32293 -0.457766
        0.355833 2.6761 0.0209761
        -0.46028 1.07255 -0.36784
        0.418197 1.39584 -0.11815
        -0.300593 2.1725 -0.414777
        -0.121852 0.718673 -0.616719
        -1.09623 0.913024 0.880836
        0.119895 2.63758 1.40825
        1.2658 3.02609 1.28002
        -0.427518 0.667512 1.41982
        -1.16712 1.11451 0.198711
        0.777604 2.25227 0.304553
        0.324641 0.407614 0.821023
        -0.470499 2.41725 1.34843
        -0.560117 1.13243 -0.0832016
        0.0350511 2.26177 -1.06726
        -0.269244 0.44869 -0.284722
        -0.519372 1.21278 -1.34655
        0.296455 0.531757 0.448733
        -0.283306 0.760953 -0.0712384
        -0.361067 0.360486 -0.386767
        -0.25303 -0.0117776 -0.438269
        -0.760059 1.1097 -0.583452
        -1.13779 1.12984 0.889285
        -0.137934 1.38242 -0.544033
        -1.87764 0.739876 0.664673
        0.12447 2.04829 -0.784588
        0.563867 1.28843 0.204058
        0.070077 1.23617 -0.207359
        -0.867415 2.09983 -0.225485
        0.576327 2.37743 0.379084
        -0.493121 0.648959 1.22631
        1.52111 -0.0100075 1.15402
        0.288638 2.44379 -0.194522
        -0.26271 1.50084 -1.07326
        0.41839 2.12684 -0.742794
        -0.740444 2.15262 -1.71195
        0.770833 -0.894134 -1.59214
        0.132773 -0.163837 0.263341
        -0.75624 -1.71057 -0.334194
        0.475031 -2.19217 0.263392
        -0.533026 -0.538455 -0.217515
        0.00194545 -1.03913 -0.780864
        -0.484291 -0.224041 -0.291327
        0.643808 -0.972787 1.26072
        0.606363 -1.46879 -0.35981
        0.644084 -1.94611 0.548199
        0.591118 -0.885635 0.135005
        0.801512 -1.26288 -0.142058
        0.920913 -2.563 -0.874934
        0.0212725 -0.827685 -1.24634
        0.966553 -0.268028 0.0473379
        0.513102 -0.941382 -0.278926
        -0.135107 -1.90444 0.183233
        0.259346 -1.53453 -0.51959
        0.180643 -1.47688 -0.0682962
        0.120119 -0.533403 -0.27981
        0.31915 -0.667877 -0.937829
        0.26023 -1.9169 -0.970478
        0.594117 -2.1999 0.145659
        0.728228 -2.06906 -0.668635
        1.87762 -0.739886 -0.664676
        -1.21091 -1.55617 -0.199014
        -0.552131 -1.31576 0.174236
        1.00128 -0.656802 -0.663375
        -0.87053 -0.646158 0.706732
        0.785113 -1.97617 -1.39323
        0.258569 -0.578367 0.509006
        -0.688658 -1.58411 -0.795549
        -0.269816 -1.83414 -0.0221209
        -0.127319 -2.46291 -0.502223
        1.15432 -2.18642 -0.355104
        -0.82547 -0.954721 0.458565
        -0.314675 -0.223439 0.699953
        -0.511082 -1.58763 0.450539
        -0.641817 -0.889896 -0.380607
        -0.194299 -0.881809 -0.0720389
        1.19385 -0.270217 0.888944
        -0.169353 -0.816234 -2.23735
        -0.482703 -1.30337 -0.232502
        -0.383043 -1.79911 -0.309176
        -0.135158 -1.72544 0.204087
        -0.985238 -0.889826 1.15601
        0.717194 -1.11794 -0.0478193
        0.554802 -0.227574 -0.122583
        0.600184 -1.97684 1.66797
        0.113436 -1.29194 -0.817199
        0.237145 -0.959199 0.574707
        -0.362983 -1.59406 -0.41123
        -0.366431 -1.89571 -0.327781
        0.374322 -1.47169 0.507142
        1.5839 -1.54127 0.232771
        -1.22349 -1.58131 -0.0676739
        0.524046 -1.35948 -0.629889
        -0.144016 -2.7265 1.98904
        -0.678699 -1.13208 -0.20554
        0.288869 -1.19828 0.0777084
        0.647524 -2.17324 0.313563
        0.806888 -0.805143 0.411328
        0.492201 0.0105418 0.824756
        -0.457647 -2.61486 0.367661
        -0.065392 -1.95684 -0.0112476
        0.421417 -1.12004 -0.747125
        0.223299 -1.27317 -1.35415
        -0.0355114 -0.518497 0.0627903
        1.59012 0.414493 -0.804702
        -0.102681 -1.17825 -0.300729
        0.80169 -0.785657 -0.0480956
        0.560655 -1.53873 -0.736185
        1.57426 -1.03432 0.532559
        -0.766406 -0.0843134 1.51858
        -0.134802 -1.60187 -0.40936
        0.429705 -1.35635 1.43945
        -0.225261 -1.18011 0.945391
        1.36559 -1.11562 0.289942
        0.206616 -0.97851 0.500594
        0.178669 -0.940349 0.519324
        -0.0673892 -2.06192 0.40101
        -0.148858 -0.696943 0.13522
        0.690651 -0.970442 -1.52192
        -0.0180903 -1.48891 0.520492
        -0.870565 -2.29957 -0.701426
        -1.44282 -0.682025 0.677357
        0.603298 -1.97811 -0.654419
        1.35325 -0.0490591 -1.35112
        -0.982046 -1.03338 -0.0702443
        -0.714314 -1.07964 0.0757412
        -0.206008 -3.55904 0.0139938
        0.517667 -1.9701 0.138437
        -0.269298 0.0829803 1.2371
        -0.25381 -0.689309 0.184332
        -0.18504 -1.78887 -0.354909
        -0.264488 -1.70097 -0.813963
        -0.427173 -1.57195 0.337604
        0.514305 -0.511254 0.472758
        0.402456 -1.87972 0.0550554