<?xml version="1.0" encoding="UTF-8" standalone="no" ?>
<VTKFile byte_order="LittleEndian" type="UnstructuredGrid" version="0.1">
  <UnstructuredGrid>
    <Piece NumberOfCells="0" NumberOfPoints="1764">
      <PointData>
        <DataArray Name="velocities" NumberOfComponents="3" format="ascii" type="Float32">
        -1.02207 -0.684433 -0.308791
        -0.934235 -0.189343 0.854976
        -0.547887 -0.766663 -0.0299173
        -0.72749 -1.87156 0.419969
        -0.940344 -1.3558 -0.226295
        0.583459 -1.2952 -0.531901
        0.0326043 -0.762472 -0.967489
        -0.981934 -1.38162 0.477206
        -0.272971 0.069667 -1.09055
        0.509215 -0.547209 1.27744
        -0.204287 -1.31836 -0.706712
        -0.132522 -1.95868 0.132146
        -0.150716 -1.231 1.44649
        -0.512217 -1.2533 0.0956741
        0.248189 -0.641541 -0.731921
        -0.109146 -0.597681 -0.500188
        -0.703578 -2.03665 0.979511
        -0.466429 -0.916453 0.22239
        0.222115 -2.44233 0.696417
        -0.55935 -0.0107864 -0.290283
        -0.10308 -2.3733 0.499808
        0.117309 -1.45175 -0.010618
        1.09285 -1.85332 0.896529
        0.534924 -1.07686 0.53884
        1.64222 -1.52088 -0.833057
        -0.662871 -1.72458 -0.533784
        0.0645541 -1.36522 0.416299
        -1.4138 -0.583165 -0.321154
        0.056976 -0.86978 0.162017
        0.0788806 -0.705637 -1.36097
        0.416002 -0.612116 1.1256
        1.09159 -1.52483 0.154216
        -0.00459154 -1.88481 -1.12214
        -0.351581 -1.08189 0.330064
        -0.141934 -1.41608 0.18382
        -0.236688 -2.29529 -0.782913
        -0.512998 -1.614 0.327446
        -0.265146 -1.19267 -1.00539
        0.13143 -1.21731 -0.990077
        0.501447 -1.89207 0.370015
        1.10773 -0.648068 -0.196158
        -0.0157034 -2.7513 -0.669916
        0.72915 -2.40917 0.384276
        0.320635 -1.82187 0.377708
        0.319567 -1.25876 -0.419965
        -0.865803 -1.55245 0.971928
        -0.281215 -1.86485 -0.888724
        -0.920002 -0.0699024 0.435745
        -0.0426596 -1.27085 -0.0124491
        -0.684684 -0.562354 -0.0721365
        -0.068562 -1.51633 0.731769
        0.0230971 -0.877391 -0.856354
        -0.625317 -1.55487 0.177067
        -1.02198 -0.48649 -1.09764
        0.335439 -0.324464 0.468757
        -0.371166 -0.580886 -0.568895
        -0.035736 -0.69968 -0.0160692
        -0.455584 -1.33881 0.0613203
        0.996727 -1.01655 -0.830529
        0.352552 -0.626617 0.756226
        0.274462 -1.93423 0.422961
        -0.77745 -1.60041 -0.828974
        -0.102476 -2.04186 0.634938
        0.256578 0.305509 1.33719
        -0.817706 0.568202 -0.588954
        1.03466 -0.928953 -0.333313
        0.191667 -1.56386 -0.96786
        -0.378909 -0.747544 0.938098
        -0.559473 -1.35443 0.490134
        1.31049 -1.11013 1.24116
        -0.500641 -2.84811 0.284645
        0.636152 -1.57237 -0.192497
        -0.37084 -0.391106 -0.686154
        0.00404453 -0.395142 0.331378
        0.177031 -2.8682 -0.843385
        0.342065 -1.34456 0.31846
        0.21712 -0.0120569 -0.070689
        -0.170494 -0.835397 -0.051941
        -0.335003 -1.18645 0.117822
        0.877076 -1.38646 -0.750987
        0.523043 0.550047 -1.31319
        0.0460547 -1.38193 0.069242
        -1.46218 -1.51079 0.343888
        1.18219 -1.77052 -0.406211
        -0.117376 -1.17461 0.897369
        0.828159 -0.71542 -0.343011
        0.532184 -0.499488 1.29416
        0.727458 -1.7836 0.943965
        -0.954136 -0.973957 -1.20264
        -0.873848 -2.08411 -1.55981
        0.332356 -2.0666 -0.94666
        -0.351216 -2.14463 0.0712388
        -0.751123 -1.49761 -0.36288
        -0.167862 -0.598923 -0.678654
        0.328956 -1.17034 -0.883982
        0.684158 -1.5605 0.363327
        1.6974 -1.33022 -0.36665
        0.154559 -1.74466 0.18751
        0.0922502 -1.20222 0.503044
        -0.514562 -1.29767 -0.129826
        0.458795 -0.174883 0.530814
        -0.191288 -0.541322 0.438314
        -0.401507 -0.623227 -0.349197
        0.763907 -1.83329 -0.134725
        0.860295 -3.30179 0.0498672
        0.298192 -0.617779 0.291433
        0.685174 -2.0277 0.745025
        -0.417098 -1.36708 -0.0535647
        0.525571 -1.11557 0.251364
        -0.484402 -0.879359 0.0512731
        -0.397632 -0.923773 0.368347
        -0.478747 -0.94683 -0.134958
        -0.189616 -1.05541 -0.461047
        0.0831453 -2.42226 -0.0761443
        0.377849 -2.04041 -0.17496
        -0.290399 -2.03165 -1.07693
        0.274152 -0.96701 -1.07699
        0.369052 -1.6916 0.63012
        -1.2307 -3.17656 0.76411
        0.00465441 -1.5546 -2.05715
        0.446712 -0.594391 -0.419175
        0.422599 -1.114 -0.83233
        0.232595 -1.88826 0.385011
        -0.859771 -2.16469 0.736397
        1.95116 -1.09972 -0.883263
        -0.128027 -1.02643 1.07596
        0.277973 -1.68666 -1.13067
        0.803268 -2.72262 0.570614
        0.831009 -0.995255 0.0631331
        -1.15755 -0.841792 0.0814748
        -0.0544816 -0.628416 0.678266
        -0.435104 -0.42263 -1.01707
        -0.825346 -0.796864 -0.115548
        -0.503599 -2.18127 -1.14689
        0.771957 -1.38649 -0.613967
        1.80445 -1.91743 0.11708
        -0.757415 -1.60785 -0.465016
        -0.163939 -0.713363 -0.291052
        -1.04469 -1.64859 0.89304
        -0.0438909 -1.69238 0.476381
        1.33188 -1.50375 -0.0828589
        -0.382725 0.300762 -0.522969
        1.05407 -2.43548 -0.78759
        -0.309 -1.83782 -0.655969
        0.960861 -1.81209 -0.213233
        0.703204 -0.0133874 -0.288828
        -0.364976 -1.17913 0.811447
        0.6812 0.00442476 -1.23301
        -1.08347 -1.12165 -1.37353
        -2.26382 -0.642725 -0.808271
        0.169205 -1.20362 0.271129
        -0.312912 -0.274409 -0.0330778
        -0.927218 -1.57969 -0.0784334
        -1.49043 -1.05621 -1.9689
        -0.233773 -1.33484 0.780211
        -0.132062 -0.900366 -0.469819
        -1.04018 -0.333318 -0.220484
        0.124833 -0.638578 0.0252065
        -0.71227 -0.30707 0.0639957
        -0.0748289 -1.05632 1.07361
        0.0727878 -0.796944 -0.272941
        -0.624762 0.674614 -1.00635
        -1.31078 -1.49077 0.959244
        -1.14487 0.0399091 -0.2754
        0.487518 -0.621569 0.0304265
        -1.68599 -0.708731 -0.566839
        0.106938 -1.81368 0.859153
        0.37738 -1.33551 0.141949
        -0.396683 0.41001 1.4343
        -2.33074 0.448156 0.441286
        0.0528329 -1.06539 -0.02447
        -0.351527 -1.4035 -0.120756
        1.26538 0.191836 0.523667
        0.500448 -0.0880142 0.0802697
        0.362664 0.781177 0.546493
        0.0276753 -2.06901 1.07498
        1.26924 -1.04718 -0.833635
        1.00803 -0.070737 0.125993
        0.453613 0.38815 -0.326918
        -0.927283 -1.44194 0.297299
        -1.50103 -0.908596 -0.619988
        -0.958264 1.5354 0.37742
        -0.406605 0.876604 0.419967
        -0.845981 1.60661 -0.0117855
        -0.38668 0.694081 0.721728
        0.589921 1.39034 0.0936971
        0.181731 0.787729 0.30625
        -0.419222 0.0188507 0.159103
        0.201417 1.05686 0.758563
        0.798414 1.4289 -0.0699197
        0.429917 1.30336 -0.501896
        -0.424081 0.69637 0.700115
        0.569717 2.22357 -0.0852029
        -0.988983 1.86717 -0.321702
        0.138927 1.22825 0.962238
        -0.206982 1.07058 -0.202826
        -0.739397 1.15524 1.1393
        1.3646 0.145366 0.56326
        -0.631991 0.11335 -0.160493
        -0.172805 -0.544477 0.495429
        -0.598975 0.406156 -0.00645289
        -0.0909743 0.901708 0.0121965
        -1.18032 1.54398 0.394516
        -0.5831 -0.469027 -0.786704
        1.16913 0.909267 0.5067
        -1.01938 1.51062 0.720304
        0.283867 0.463455 0.11861
        -0.114515 1.23138 0.928077
        -1.42891 0.965941 -1.30951
        0.582743 1.52791 0.887335
        0.222557 2.58006 0.0926365
        0.304325 1.5207 0.229378
        -0.188541 -0.74013 0.302903
        1.44473 -0.343681 -0.0106318
        1.78351 1.47384 -0.878506
        0.340764 0.189917 0.501576
        1.01353 1.47556 -0.710777
        -0.353198 1.91524 0.412101
        -0.403704 0.794565 -0.694397
        -0.51867 2.42269 -1.95665
        -0.595788 1.98383 -0.662661
        -0.786357 2.12395 -0.0672457
        -0.30683 0.957779 0.398685
        0.358617 1.7716 -1.69846
        0.463814 1.36688 -0.422523
        -0.155751 2.14545 0.84663
        -0.997063 1.54698 -1.17119
        0.312491 2.69857 0.469257
        -0.507407 2.25826 -0.34315
        -1.16845 1.04731 0.21655
        0.572994 0.955637 0.102913
        -2.14698 2.50992 -0.931238
        -0.199072 0.62498 -0.589388
        -0.0139586 1.29276 0.601541
        -0.0924543 1.15072 -0.45739
        -0.555817 1.01193 -0.98914
        1.23232 1.51463 0.063977
        1.01089 1.69906 0.667146
        -0.658898 -0.0958311 -1.00934
        0.299879 1.44046 -1.34868
        0.589899 0.622911 1.47703
        -0.344287 1.76465 -0.848391
        0.854118 0.867996 -0.296765
        0.347492 1.92361 1.10973
        -0.228944 1.03356 -0.636556
        1.06099 1.57185 0.827495
        0.607584 2.97482 0.260676
        0.0263253 2.24064 -0.190416
        -0.702911 1.43677 0.0521928
        -0.870542 2.09918 -1.05405
        -0.684193 0.286758 0.638895
        -0.629958 0.530972 0.211914
        1.02837 1.36185 0.847881
        -0.433609 0.675245 0.342309
        -1.07702 0.944237 0.6071
        -0.738418 2.10575 0.0719275
        -0.464688 1.72687 -1.23626
        -0.304912 1.68294 0.116349
        -0.221719 -0.257811 0.914823
        -0.691063 0.918117 -0.390029
        -1.02431 2.00998 0.503286
        -0.411857 1.509 0.435301
        -0.330047 1.28991 -0.437901
        -1.14606 1.12716 0.232865
        0.147839 0.951039 -0.358261
        0.622331 0.776958 -0.0952297
        1.34662 1.14995 0.0281397
        0.449665 -0.315892 -1.45297
        1.13598 2.52571 -0.167643
        0.426354 0.338762 -0.906901
        -0.205391 1.12896 0.772356
        -0.906202 1.55085 -0.592228
        -0.511053 1.01966 -0.55944
        -1.92463 1.0066 -0.170608
        -1.12636 1.41006 0.0222554
        -0.5274 0.053942 -0.276992
        -0.0031673 0.758053 0.038043
        -1.09698 1.8842 -0.602341
        -0.880162 1.78572 -0.765169
        0.407714 2.64131 -1.0209
        -0.239482 1.93681 -0.280345
        -0.361462 2.23766 0.558242
        -0.614426 0.604013 0.728153
        0.643934 1.79825 -0.420625
        0.133618 1.5221 0.427603
        -0.385152 0.112185 0.437313
        -0.868795 1.71268 -0.227025
        -0.793015 2.3025 0.256355
        0.634617 1.01608 -1.02397
        -0.769861 2.13207 0.971847
        -0.957093 1.90062 0.283237
        -0.572905 0.107924 -0.62695
        -0.894312 2.72198 -0.182293
        0.451306 0.0448309 0.265533
        0.973741 0.392165 0.545051
        0.844248 1.80982 0.599548
        0.187445 1.83846 0.519588
        -0.773525 2.24367 -0.162702
        -1.55465 1.98482 -0.169755
        0.135302 1.03089 -0.0366745
        -0.222065 1.14 0.71716
        -0.433653 0.978164 -0.699724
        -0.075876 2.25694 0.848282
        -0.890228 1.73682 0.963985
        -0.228986 0.901641 -1.01134
        -0.292658 0.440336 -0.0837781
        0.872732 0.149189 -1.43904
        -0.170391 2.19656 0.526356
        0.533184 1.97853 -0.190105
        -0.629857 2.07611 0.0387641
        0.787696 1.84748 0.700018
        -0.358568 1.64703 -0.0749946
        -1.40642 0.628349 0.241229
        -0.962129 0.925623 0.0665398
        1.26987 3.21592 -0.516207
        -1.39067 1.1376 0.863251
        0.317706 1.00526 0.759469
        -0.258391 3.14235 -1.59103
        -0.24986 1.73438 0.530804
        -0.285759 0.655458 0.433854
        0.786866 0.570728 -0.107879
        0.241065 0.854217 -0.514789
        -0.62662 1.76638 0.191464
        0.613698 1.94606 0.424099
        0.596793 1.14403 -1.17785
        -0.506672 2.36713 -0.124241
        -0.830937 0.791601 0.531626
        -0.000220482 1.34386 0.53848
        0.587744 0.978119 0.198974
        -0.264239 1.62975 0.891638
        0.720293 1.09807 -0.145169
        -0.807268 1.23602 0.0364756
        -0.520127 2.21858 -0.100919
        -0.739195 2.24467 -0.419036
        -0.607408 2.03748 -1.00306
        -0.0500716 0.791492 -0.394613
        -0.0988224 1.22932 -1.19177
        0.830494 1.6328 -0.927151
        -0.284725 1.51251 -0.0475486
        0.27437 0.15317 1.56674
        -0.988094 1.88424 -0.302604
        0.433332 1.72568 -0.922121
        -0.880411 1.16944 1.09652
        0.830462 1.4636 -0.158973
        -0.488452 1.92568 0.730486
        -1.18351 1.87199 -0.170187
        0.0550408 1.78026 0.162757
        1.07777 1.65925 0.643117
        -0.148962 1.664 0.685421
        -0.141783 1.02145 -0.662094
        -0.484823 1.52639 1.22909
        -0.856735 0.780122 -1.09011
        -0.293256 0.853257 -0.0283522
        -0.111171 1.13285 -0.271851
        0.117065 0.830507 0.00843638
        0.328273 0.178352 -0.243342
        0.0637072 1.34367 -0.66511
        0.86552 0.77493 -0.148155
        -0.171256 1.22397 1.06128
        0.221989 1.27736 0.387396
        -0.53349 1.53438 0.124722
        0.343016 1.76486 -0.0560627
        0.596589 0.636353 0.621167
        -0.273651 0.561174 -0.16106
        0.056579 0.239142 0.436354
        1.56125 0.865633 1.04317
        0.356787 0.36957 -0.0342114
        0.128868 1.38517 -0.387374
        -0.0707963 2.35685 0.594317
        -0.523979 2.66277 0.851184
        -0.081671 1.42686 -0.366788
        -0.793249 1.49735 0.0556657
        -0.048401 0.872325 -0.0180003
        -0.0195614 1.40568 1.22526
        -0.0811995 0.768077 0.581738
        1.03652 -1.42875 -0.973305
        -0.224511 -1.25219 0.425782
        -0.593746 -1.55405 -0.0206338
        -0.936625 -0.5762 0.474866
        0.584468 -2.50845 0.0939719
        0.615761 -0.221699 0.279766
        -1.34766 -2.63745 0.0798247
        0.299195 -1.42038 -0.133098
        -0.333279 -1.64883 0.594764
        -0.762286 -0.370997 -0.924927
        -1.20054 -1.22674 0.616879
        1.0059 -0.473928 -0.374948
        -0.111238 -1.14752 0.201678
        -0.225933 -1.12289 -0.720523
        0.87601 -2.42522 0.147615
        -0.322669 -0.322444 -0.105498
        0.316846 -2.24963 -0.789083
        0.00859062 -0.767205 -0.660577
        -1.17588 -0.646295 0.230976
        -0.15599 -0.959147 1.05252
        -0.81057 -0.99452 -0.0451233
        -0.0184767 -0.606054 -1.11718
        -0.64402 -0.983383 -0.454406
        0.942898 -1.12593 -0.338382
        0.039122 -1.88073 -1.0586
        -0.439854 -0.607928 -0.937028
        0.292589 -0.533865 0.831736
        -0.427381 -0.144514 0.493833
        -0.0155434 -1.13182 0.745992
        0.375126 -1.52501 -0.73489
        1.16478 -0.565697 -0.241991
        -0.112793 -1.43868 -1.42435
        -0.50442 -2.7471 -0.066199
        -0.373345 -1.63636 -0.266123
        0.108526 -3.19533 1.71648
        0.161199 -0.597219 -1.09861
        -1.68878 -1.39154 -0.25574
        -0.109027 -0.658087 -0.0175467
        -0.304713 -0.963659 -0.30174
        0.662079 -0.831873 0.686091
        -0.786683 -2.05671 -0.0595615
        0.193221 -1.8508 -1.16813
        0.613382 -1.0706 0.691415
        1.68678 -1.57421 0.344673
        1.80517 -1.25572 -0.89431
        0.0745448 0.277431 0.272442
        -0.666856 -1.47613 -0.448962
        0.542454 -1.22691 0.303389
        1.42099 -0.633778 -0.248028
        0.0690454 -2.16762 -0.560019
        0.584003 -2.88706 0.0865201
        0.381847 -1.21939 0.435446
        -1.38127 -0.84668 -0.32717
        0.793759 -1.71881 0.638301
        0.566365 -1.06242 0.719235
        0.230284 -0.0617486 -0.950761
        0.522024 -2.56972 1.56742
        0.132715 -0.602623 0.604584
        -1.20404 -2.13331 1.17778
        -0.923011 -2.35138 0.412292
        0.220896 -1.55721 -0.214552
        -0.748378 -2.20994 0.329687
        0.989079 -1.01851 1.1341
        -0.823668 -0.239089 -0.874475
        -0.0646604 -0.43725 -0.247612
        -0.621533 -1.07831 -0.253328
        -0.362193 -2.17132 0.855593
        -0.653013 -1.73888 0.57017
        0.634596 -1.1266 -0.0206558
        -0.767204 -1.12693 1.27047
        -0.127223 -1.4847 -0.409551
        1.28316 -0.711624 0.141777
        1.18415 -1.8429 -0.0616607
        -1.53054 -1.1505 0.268609
        0.396521 -1.19391 0.825345
        0.32982 -1.26832 -0.46476
        -0.786875 -1.74586 -0.375678
        0.162573 -0.269452 0.568869
        -0.979 -1.05592 0.80993
        0.0781807 -0.307191 0.861799
        0.383734 -1.82427 -0.429354
        0.145644 -2.04521 1.56918
        -0.528175 -0.204789 1.02555
        0.341483 -1.39941 -0.0174828
        0.675801 -1.7335 1.28618
        -0.206612 -1.24706 1.63391
        0.727137 -2.00955 -0.957834
        -0.094429 -1.09866 0.11759
        -0.940378 -0.627027 1.12744
        -0.150354 -3.07164 0.290859
        -0.922642 -1.96002 0.602304
        0.00618345 -2.20738 -0.132803
        0.18243 -1.32289 -0.140317
        0.495499 -0.686883 -0.401752
        0.668567 -1.4548 -0.739199
        -1.01828 -1.45677 -0.625887
        2.10284 -1.07057 0.281713
        -0.123344 0.395059 -0.268225
        -0.564653 -1.54744 0.499741
        0.0278813 -0.532537 -0.726034
        0.498478 -1.25996 -1.14514
        -0.378729 -2.83169 -0.309142
        -1.21572 -0.387431 -0.190226
        -0.231457 -0.975077 -0.210043
        0.00358503 -1.8399 -0.41859
        0.163992 -1.05321 -0.5063
        -0.64508 -0.348467 0.160029
        1.12409 -1.69012 -0.115192
        -1.38167 -0.598584 -0.395946
        0.095271 -1.44956 -0.977661
        -0.284452 -1.51003 0.345258
        -1.25244 -1.28654 0.991153
        -1.38936 -1.84711 -1.1959
        -1.1989 -1.86133 -0.63261
        0.908114 -1.96748 -0.940992
        -0.158327 -2.24707 -1.12664
        -0.255336 -2.34074 0.420311
        -0.517062 -0.203632 -0.44519
        -0.20991 -0.97813 1.44953
        0.14921 -1.18551 0.250587
        0.953842 -2.56379 -0.00596256
        0.475588 -1.94556 -0.115552
        -0.107372 -2.11724 -0.23492
        -0.534037 0.264132 -0.559644
        0.549132 -1.94763 -1.17874
        -0.652628 -1.96492 0.327319
        0.878768 -1.73221 0.0108276
        -0.29912 -1.76441 0.239625
        -0.286983 -1.16839 -0.524519
        -1.19961 -1.84059 -0.379237
        0.585781 -2.08672 0.887474
        0.202449 -1.87749 0.477498
        0.30669 -1.99682 2.00243
        1.07568 -0.876834 1.38806
        0.21006 -2.199 0.554877
        0.83141 -2.2634 0.258009
        -1.11187 -0.367321 0.189393
        0.618475 -0.899667 -0.799635
        -0.645692 -2.00651 0.522213
        -0.01625 -1.24061 0.906461
        -0.148747 -1.62412 0.468428
        0.111373 0.841013 -0.423042
        -1.69102 -1.19982 0.125552
        -0.303462 -2.47702 -1.58652
        1.36978 -1.77142 -0.127235
        0.545963 -0.168359 1.15067
        -1.71306 0.087029 1.00119
        -0.407687 -2.36948 -0.15429
        0.0946421 -1.31794 0.672103
        -0.055956 -1.31242 -0.290279
        0.533414 -1.55413 -0.34077
        -1.97146 -1.35234 -0.044711
        0.506671 -0.85722 0.827216
        0.083857 -0.607461 -0.631279
        0.511577 -1.58171 0.287118
        1.1065 -0.997003 -0.192314
        -0.831345 -0.473458 -1.52579
        0.616305 -0.947251 -0.56064
        1.03797 -1.20979 0.596384
        -1.0161 -0.237476 0.148422
        -0.918099 -0.299598 -0.787771
        -1.04549 -1.24605 0.190951
        -1.40966 -1.38857 0.0260396
        0.404734 -1.43176 -0.232059
        0.420046 -0.319933 -0.104537
        1.07964 -1.39207 0.378712
        -0.248499 -2.05802 -0.353941
        -0.283063 -2.45274 -1.82054
        0.759212 -1.91884 -0.253993
        0.801887 -2.53339 0.0494235
        1.6758 -1.30963 1.00735
        -1.08545 -0.635385 1.57235
        -0.19368 0.0748949 1.37444
        -0.321733 -0.480868 0.406171
        2.38444 -2.05936 0.0735825
        -0.38315 -0.753993 -0.883747
        0.682581 -0.293624 -0.488601
        1.2419 -0.689485 -0.316298
        -0.882533 -1.09503 0.0817088
        -0.731896 0.157731 0.073394
        -1.19559 -0.755097 -0.474021
        1.06478 -1.51161 1.3764
        0.331714 -2.19727 0.508374
        0.366387 -1.86525 0.400766
        -0.683473 -1.08554 0.262351
        -0.286539 0.817421 -0.601053
        -0.455987 -2.34274 0.459499
        -1.79154 -1.60921 -1.12679
        -0.158015 -0.608686 -1.04206
        0.801739 -2.16236 -2.21443
        0.180923 -0.456375 -0.502851
        1.15927 -0.716685 0.639455
        -0.074898 -0.614442 0.499631
        1.01079 -0.968789 1.10629
        -0.624611 -0.288736 1.348
        -1.31941 -0.0311901 1.01667
        0.556583 -2.20739 0.583341
        -0.702184 -0.941929 -0.946589
        0.6274 -1.66041 0.350031
        1.1948 -0.881939 0.292798
        -0.344419 -1.99312 0.0199237
        -0.900416 -1.48894 0.483558
        -0.980762 0.813296 -0.433484
        -0.981742 0.598917 0.111103
        0.658202 1.01793 -0.808567
        0.0362593 0.176094 -0.742604
        0.822725 0.171999 -0.984552
        -0.321462 -0.195335 -0.218897
        0.255595 -0.304285 1.48167
        1.52875 0.704067 0.106199
        1.65522 -0.45899 0.290155
        0.274288 1.21782 -0.638592
        -0.0714471 0.707355 1.40907
        -0.656947 0.032685 -0.207019
        1.17121 0.338624 0.283921
        -0.329148 0.799194 1.26878
        0.243065 1.38216 0.417961
        0.249607 0.612213 1.23286
        0.723657 -0.637107 0.288223
        0.218857 0.835634 0.913234
        -0.351126 1.52813 -1.52049
        -0.691279 0.164481 0.51534
        0.294937 1.32242 -0.11579
        -0.759517 -0.30484 -1.21155
        -0.318087 0.580388 -0.00777935
        0.505365 0.265711 0.292057
        0.86373 0.897057 -1.13142
        0.741827 0.0884724 1.10291
        -0.278005 1.40596 -0.574421
        -0.0756509 2.06259 0.746242
        1.26475 0.871059 2.47594
        -0.641241 1.93855 -0.599201
        1.16854 2.05433 0.687809
        -0.384543 1.82014 -0.282405
        0.652421 0.979815 -0.508112
        -0.316616 0.754854 -0.275962
        0.549279 1.37726 0.14944
        -0.131229 1.97863 0.657864
        0.816822 1.22904 -0.183757
        0.394335 2.49078 0.474021
        1.31477 0.793666 0.490527
        0.920736 0.59806 -0.684899
        0.294755 1.42554 1.02877
        0.474187 1.76233 -1.9324
        0.52838 0.217475 -0.837641
        -0.389126 1.70596 -0.571621
        -0.0156732 0.811719 0.128561
        -1.11172 1.38041 -0.817001
        -0.0904192 2.8151 -0.458717
        0.833452 2.76297 1.30339
        0.174107 2.08574 0.63868
        -0.0885899 0.721112 0.352398
        -0.168616 1.99449 0.49313
        -0.340054 0.63459 0.521398
        0.0990714 1.02311 0.28343
        -0.927829 0.146499 0.999772
        -0.405531 2.08618 0.288778
        0.698282 2.5248 2.58553
        -0.0469508 1.65707 0.316579
        -0.986697 0.77636 0.659555
        -0.927998 2.05119 -0.193256
        -0.515936 0.928353 1.24809
        -1.05578 0.0205436 -1.26114
        -0.714294 1.38459 -0.00730549
        0.517259 0.969556 -0.39233
        0.653615 2.81225 -0.0243577
        0.0703077 2.12769 -1.48258
        0.707701 2.24974 0.316785
        -0.311937 1.67916 0.982921
        -0.521463 0.366241 -0.812731
        0.659701 1.54787 0.20583
        -0.265904 0.715778 0.161662
        -0.109687 0.941683 -0.563236
        -0.203884 1.67269 0.00735291
        0.547889 1.2516 1.24826
        -0.235142 1.83566 1.17811
        0.0787749 1.44679 0.723824
        -0.155247 0.542285 0.387061
        -1.18629 2.24686 1.23723
        -0.905673 2.12291 -0.559467
        0.61778 0.967473 -0.848498
        -0.0879982 2.31582 0.338266
        0.88014 1.27365 -0.497469
        -0.101836 1.79203 0.829165
        0.0194746 2.84452 0.474019
        0.869259 1.41894 1.13464
        -0.439201 2.29339 0.743555
        0.379668 0.670528 -0.849661
        0.47059 0.43005 -0.931711
        -0.607188 2.05565 -0.265782
        -1.15244 0.15496 -0.292318
        -0.0730764 1.0816 -0.382221
        -0.39431 0.960054 0.470898
        0.481741 0.855051 -0.0333305
        -0.388765 1.97919 0.452688
        -0.290376 2.88347 -0.293526
        -0.832673 0.829718 0.350054
        -0.719008 0.779877 0.757425
        0.30304 1.93728 -0.319716
        0.524446 1.754 0.0241401
        -0.85225 1.07654 -1.06965
        -0.17477 0.379003 0.463777
        -0.606421 2.13535 -0.0759632
        -0.237773 1.24152 -0.713972
        -0.332259 0.183255 0.545491
        0.0344503 0.183121 0.0475857
        -0.0941714 2.92824 0.892194
        -0.121264 0.351584 0.0338462
        0.231358 2.53197 -0.552674
        0.955581 1.61698 0.791117
        0.514916 1.3251 0.144797
        -1.25336 1.18043 -0.689634
        1.35457 1.44047 0.00675126
        -1.48572 2.61008 -0.0725252
        0.199421 -0.304003 -0.173417
        0.132813 0.194723 -0.0591561
        1.1552 0.774032 0.376543
        -0.933827 1.24016 -0.760429
        -0.645488 2.03979 0.328403
        0.182699 1.59091 0.202766
        -0.60935 1.43425 0.380564
        0.657828 0.473333 -0.107146
        0.448279 0.537134 -0.0582182
        0.793413 0.273685 -0.424223
        0.851125 1.02654 -0.487063
        -0.255738 0.948208 -0.385676
        -0.499945 0.73584 0.653323
        -0.513738 1.71892 0.00201791
        -0.153959 2.46402 -1.40125
        -0.187316 0.895037 -0.352727
        1.47896 1.69353 -0.3719
        -0.288907 1.11338 1.13065
        -0.0333931 2.12799 0.0519629
        0.13071 2.28287 0.272348
        -1.32053 0.798335 -0.34921
        -0.222569 2.72414 -1.23727
        0.257527 1.55638 -0.45449
        -0.0734047 1.79814 1.69925
        1.26774 3.13692 -1.07271
        0.914113 1.57754 -0.662961
        -1.22633 0.429408 -0.881092
        1.38651 1.75104 -1.29006
        1.58805 3.12827 0.75967
        1.19754 1.53797 -0.0683127
        0.419411 2.31235 -0.146134
        -0.507916 1.41805 -0.473869
        0.554619 1.17491 -0.614739
        -0.588638 1.33146 -0.639389
        -0.0961987 1.60859 0.26082
        -1.54952 1.12479 -0.748542
        -0.282793 0.832331 -0.0353667
        -0.619603 -0.274497 -1.14
        -1.65564 3.06356 -0.155588
        -0.218911 1.48519 -0.0859073
        -1.4127 1.52881 -0.348504
        -0.0623004 0.423662 -0.12961
        0.318785 1.47713 -0.616331
        -1.0238 2.0792 -0.7995
        0.58302 1.23668 -0.544565
        0.948046 0.415575 -0.228052
        0.625449 1.13181 -0.0965122
        -0.836853 0.147905 0.0901689
        0.962613 0.377183 0.367527
        1.19583 2.4694 0.182444
        -0.121284 0.507124 -0.28445
        -0.214937 2.22475 0.854281
        0.195862 -2.35656 -1.6928
        0.077919 -1.01686 0.437019
        -1.63654 -0.514638 -0.684115
        1.12951 -2.11914 -0.118943
        1.08408 -1.81813 0.691844
        1.81288 -1.30537 0.143093
        0.655245 -1.74691 0.781476
        0.038406 0.0271962 -0.735392
        0.61891 -1.56148 -0.3024
        -0.288833 -1.4582 -0.651419
        -0.132815 -0.194721 0.0591561
        1.68372 -0.50965 0.450884
        -0.47059 -0.43005 0.931708
        -0.0156141 -1.82691 -0.874375
        0.451057 -2.30063 -1.51846
        0.829807 -2.98159 0.177497
        0.148859 -1.84785 -0.386181
        -0.150942 -0.111028 -0.552698
        0.704822 -2.20796 -0.183215
        0.663523 -2.12136 -0.148381
        0.266591 -1.96985 -0.2458
        -0.344454 -2.28843 -0.0797752
        -1.48475 -0.432013 -0.0168786
        -0.311151 -1.24838 0.675595
        -0.394674 -1.67493 0.684407
        -0.665257 -1.74885 -0.470857
        -0.371391 -1.37483 -0.468684
        0.635897 -1.14646 1.34882
        -0.486909 -0.745901 -2.08855
        0.389007 -2.13398 -0.382475
        -0.260861 -1.4223 0.39927
        -0.0286794 -1.21191 0.589021
        0.93456 -0.0752561 -0.622953
        1.28157 -0.717123 -1.10809
        1.05887 -1.6168 0.193192
        0.196965 -0.461846 2.21706
        0.0435104 -0.934695 1.68166
        -0.0427531 -1.47098 -0.272924
        -0.192993 -1.77895 0.776487
        1.92917 -1.87008 -0.953756
        0.768603 -2.03001 0.128879
        -0.861766 -0.159573 0.883975
        0.652494 -1.96103 -0.841868
        0.658575 -0.614726 0.849228
        -1.08171 -0.844135 -0.108736
        0.350568 -2.06876 1.57785
        0.816843 -0.521269 -0.391149
        0.513854 -1.09414 -0.295492
        0.158268 -1.6463 -0.240338
        0.467786 -1.69291 -0.293653
        -0.226471 -1.79225 -0.0983717
        -0.253318 -1.14455 -0.417281
        0.0506002 0.178028 -0.193582
        -0.0283005 -1.56624 0.708456
        0.673673 -0.643928 -0.894757
        -0.023687 -1.63443 0.0325424
        0.437933 -0.903618 -0.423296
        -0.250048 -1.66346 0.533413
        0.0789393 -0.832436 -0.388826
        0.40529 -0.761189 0.302236
        0.112269 -1.08725 -0.064913
        -0.944913 -2.47535 -1.33095
        -0.051339 -0.711643 0.46081
        -0.882726 -1.88218 -0.0733268
        1.29656 -1.95763 0.00195392
        -0.323675 -1.63034 0.348874
        0.58416 -1.5583 0.470175
        -1.3296 -1.16081 -0.568005
        -0.204556 -1.22653 0.313707
        -0.0357374 -1.11452 -0.590272
        0.241033 -1.37279 -0.602471
        0.424374 -1.01394 -0.895915
        1.10435 -0.977048 -0.0783181
        -0.740073 0.111061 0.0312236
        -0.685541 -0.724837 1.23946
        0.97754 -1.37609 0.907555
        0.148988 0.347522 0.513414
        0.330064 -1.20243 1.45618
        0.447445 -0.358282 0.0553463
        -0.352803 -1.62632 0.759522
        0.432087 -1.5906 -0.82161
        -0.0472209 -1.55443 -0.986998
        0.166942 -2.31521 -0.81241
        -0.531036 -1.53308 -0.807962
        -0.893742 -2.22393 -0.0463783
        0.0300191 -1.8803 -0.30835
        -0.285776 -2.17535 -0.61597
        0.216726 -0.0169187 1.02664
        -0.0555277 -0.0924731 -0.726114
        -0.940571 -0.539941 0.241497
        -0.155964 -1.38069 0.952293
        1.10056 -0.339954 -1.00777
        -0.124039 -1.75031 0.338198
        0.47389 -0.533782 0.560737