<?xml version="1.0" encoding="UTF-8" standalone="no" ?>
<VTKFile byte_order="LittleEndian" type="UnstructuredGrid" version="0.1">
  <UnstructuredGrid>
    <Piece NumberOfCells="0" NumberOfPoints="1764">
      <PointData>
        <DataArray Name="velocities" NumberOfComponents="3" format="ascii" type="Float32">
        -0.69376 -0.775187 0.413711
        -0.832516 -1.28704 -0.132619
        1.15029 -2.95115 -0.00627536
        -0.448604 -3.22259 -0.822639
        -0.144805 -0.519295 0.814687
        0.506808 -1.84995 -0.387481
        0.52053 -0.92639 -1.09761
        0.380627 -1.18938 2.15382
        0.109927 -0.889357 -0.970829
        1.23568 -0.706977 -0.406334
        0.186942 -1.24537 -1.15719
        0.550043 -1.09432 -0.0487082
        0.144057 -1.43403 0.075831
        0.673545 -0.9308 0.0426359
        -0.152844 -1.92412 0.399378
        0.324855 -1.19927 0.428211
        -0.0553039 0.0761064 0.770935
        1.08973 -1.43816 -0.211103
        0.95183 0.191283 0.217281
        -0.487054 -2.12974 0.596994
        0.0543409 -1.29611 0.648466
        -0.696474 0.1207 -0.329682
        -0.420109 -0.993666 -0.103
        0.0140509 -1.05311 1.31259
        0.422219 -0.610851 0.473796
        0.136024 -2.38369 -0.989827
        -0.73399 0.0962623 -0.521572
        0.330352 -1.03693 0.743089
        1.04207 -1.82407 -0.514118
        -0.0299189 -2.21506 -0.449671
        0.0455816 -2.10425 -1.17924
        0.279416 -0.794253 0.252874
        0.430377 -1.75098 -0.255238
        -0.977514 -1.5811 -1.16476
        -0.250841 -1.64817 -0.0134449
        -1.28806 -1.31433 -0.000453202
        0.690414 -1.85315 0.399975
        0.0346015 0.105446 -0.18926
        0.0822926 -1.82654 0.0052996
        0.600347 -1.55498 0.0888026
        1.10622 -0.77863 -0.730735
        0.276765 -1.69314 -0.418692
        0.638187 -1.40806 -1.11432
        0.264387 -1.39079 -0.835875
        -0.0384832 -1.68732 -0.00920087
        0.383305 -2.00684 -1.20278
        -0.526655 -0.475465 0.34506
        2.04254 -0.0131222 0.207324
        -0.794929 -1.72347 0.252248
        -0.597417 -2.10002 0.130063
        0.576957 -1.79718 -0.330146
        1.81004 -0.140164 0.935619
        0.222275 -0.858514 0.811199
        -1.1639 -1.08246 -1.02506
        0.289557 -2.7234 0.681511
        -0.672442 -1.04255 -0.156243
        -1.43534 -1.34185 -0.759362
        -0.0684517 -0.908914 0.125231
        0.177667 -1.72874 0.492063
        0.264294 -1.98408 0.245994
        -0.866768 -2.85715 1.02802
        -0.546944 -2.01938 0.388358
        0.0843136 -0.855297 -0.823937
        2.09107 -1.27496 1.13017
        1.07413 -0.679439 0.392561
        -0.480067 -0.61337 0.364103
        0.482908 -0.497696 0.340782
        -0.873079 -0.83763 -0.50733
        -0.767209 -2.01616 -0.392492
        0.280244 -0.386198 -1.38252
        1.19522 -0.444185 -0.0959548
        -0.115444 -0.871362 0.222315
        -0.154089 -1.49704 -0.320153
        -1.17744 -0.93527 -2.09857
        0.636483 -0.150222 0.261699
        -0.268328 -0.954431 0.530673
        -0.45891 -1.39907 0.56303
        0.839197 -0.47087 0.00313504
        0.0801001 -1.23346 0.0371924
        0.126941 -2.04176 0.480332
        -0.552127 -2.15886 0.565674
        0.338788 -1.24161 -0.973047
        0.555118 -1.2803 -0.814108
        1.18274 -1.14836 -0.796404
        0.820326 -0.90599 1.06846
        -0.549162 -1.69117 0.153223
        0.752684 -1.08049 -0.643826
        0.212939 -1.78657 -1.67435
        -0.744775 -3.01359 0.612408
        0.0574842 -1.78021 -0.85372
        0.357418 -0.840765 -0.778326
        -0.477872 -0.940916 0.0271181
        0.740123 -2.30759 -0.364609
        0.978549 0.0468016 0.302309
        -0.0890862 -0.0699351 -0.754372
        0.0562156 -0.335759 0.269075
        0.750813 0.0159158 -0.842068
        0.154168 -0.954029 0.943228
        -0.683729 -0.0278555 0.175716
        0.389446 -1.80546 0.679181
        -0.766758 -1.82385 -0.235512
        1.17227 -1.60408 0.0165488
        -0.0469355 -1.45166 -0.255529
        -0.638703 -0.706268 0.304397
        0.465499 -0.618679 0.268367
        0.901499 -0.84508 0.737863
        0.603823 -2.09747 -0.0282897
        -0.0642395 -3.52035 0.0123338
        -0.0201637 -1.92846 -0.693899
        -0.13673 -1.47445 1.12598
        -2.64409 -0.588906 0.431401
        -0.0337717 -1.16882 1.27426
        0.332794 -0.758539 -0.0830585
        -0.106826 -1.47985 1.49791
        -0.158179 -1.4259 -0.428876
        0.257122 -1.9851 0.415292
        -0.0795601 -0.958095 -0.798004
        0.226712 -0.512902 0.815382
        0.748334 -1.19743 -0.597271
        0.408723 -1.40094 -0.220303
        0.632688 -0.979494 0.0739904
        0.0262864 -1.65517 -0.0847843
        -0.723433 -0.538867 -0.0643726
        -0.0574031 -0.74677 0.99272
        -0.488802 -2.59141 0.601833
        0.499427 -1.53577 0.433097
        -1.21312 -0.94587 -0.0209709
        0.396342 -2.1136 1.04252
        -0.0651327 -1.12159 0.764143
        -0.481504 -1.55562 0.835205
        0.0272307 -1.64534 1.14311
        -0.68362 -0.0756987 0.292397
        0.859749 -1.26104 -0.818838
        -1.53126 -1.63222 -0.334395
        -0.803191 -2.39633 -2.29032
        -0.75144 -0.807408 1.16944
        0.117152 -1.21636 0.245175
        0.723415 -0.139408 0.989712
        0.384853 -0.837925 -1.11305
        0.0856004 -0.569108 -0.253739
        -0.305358 -1.66698 -0.513659
        0.667384 -1.00732 -0.255499
        -0.698246 -0.375869 0.711883
        -0.218043 -1.13889 -0.61359
        -0.250005 -1.37418 0.452373
        0.0219834 -0.00091211 -0.995166
        0.0168824 -1.16015 0.063712
        -0.879836 -1.26916 0.0106077
        -0.759682 -1.90151 0.0602145
        -1.09411 -0.87802 -0.0617576
        0.199507 -1.83511 -0.21896
        0.547025 -1.00781 -0.591072
        0.662134 -0.930374 -0.451525
        -0.58586 -0.387655 0.66692
        -1.37374 -0.542621 0.0904739
        -1.03304 -0.943198 -0.457525
        0.0828663 -1.43714 0.586819
        0.0232043 0.807115 -1.33561
        -1.43287 -0.0558321 0.310139
        -0.662643 0.613772 0.295934
        -1.33835 -0.619612 -0.712734
        -1.24229 -0.776301 0.203141
        0.0953924 -0.565726 -0.535532
        -0.370654 -1.06667 0.938318
        -0.211549 -0.691405 -0.638432
        0.0155428 -0.249241 0.587939
        0.612416 -1.51002 0.830878
        1.29971 -1.50752 0.787772
        -1.0153 -0.0689508 0.587479
        1.26924 -1.04718 -0.833635
        -1.28352 -0.767552 -0.72516
        0.150342 -0.984774 -0.605678
        0.105947 -0.407694 -0.441761
        -0.141097 -0.386123 -0.504172
        -0.685458 -1.32395 -0.252362
        -0.86526 -1.86875 1.01989
        -1.82862 -1.17455 -0.140503
        0.156127 -0.602841 0.386271
        -0.187918 -0.594593 0.0522751
        0.0202443 -0.648926 0.528761
        -1.24876 -0.774761 1.60524
        -0.301599 -0.149389 -0.603881
        -0.20824 0.244904 0.0307519
        -0.65735 -0.589316 1.06128
        1.17875 0.399232 0.793683
        0.474886 -0.209907 0.863346
        0.327119 0.356953 0.651406
        -1.19985 -0.484293 1.38626
        0.166862 1.17157 0.416769
        0.109967 0.942586 0.454757
        0.0263659 0.973553 0.844128
        0.885872 -0.0518426 0.0734751
        -0.0508211 1.91315 -0.648694
        0.0839872 0.6878 0.0290233
        0.961349 1.14111 -0.449223
        -0.975064 0.0339581 -0.0115716
        -0.995802 0.48599 0.34939
        0.713689 0.934698 -0.383392
        -0.0597993 0.342342 0.996987
        -0.439271 0.142209 -0.727817
        -0.413165 1.02995 -1.05758
        0.307829 -0.0158592 0.257848
        0.342017 0.535191 0.318359
        -0.880426 1.41337 -0.753542
        -0.348106 0.509765 1.08664
        -0.494175 1.16005 0.0509781
        0.948777 2.04967 0.730945
        -0.436906 1.55559 0.20301
        0.39269 0.808672 -0.450007
        -1.26882 1.46257 -0.103214
        0.226484 0.678434 0.933132
        -0.262848 1.33489 -0.0846351
        0.92915 2.74079 1.11293
        -0.440159 1.49557 -0.474454
        0.444308 0.999504 0.387193
        0.252777 0.605156 -0.258123
        0.439272 2.5112 0.441382
        -1.35511 2.10328 0.280642
        0.908567 0.998432 0.39414
        0.00297712 2.03025 -0.250183
        0.0451014 1.17728 -1.57854
        -0.17094 0.167213 -0.221282
        0.271689 0.71849 0.364999
        -0.282519 1.75553 0.802963
        -0.499068 0.912962 0.0148484
        -0.731768 1.15505 0.876654
        -0.15618 -0.648819 -0.0241688
        -0.00693437 1.86983 -1.23956
        1.18565 0.732045 -0.186189
        0.114014 2.4067 0.556281
        1.48096 1.78157 -0.523709
        0.227038 1.96257 -0.0209784
        -0.00978573 0.276524 0.233717
        1.6896 0.655789 -0.75627
        -0.29828 0.410683 -0.238827
        0.305746 0.690337 0.217356
        -0.157226 2.70691 0.194988
        0.296246 2.11071 0.21134
        0.702874 2.53775 0.0784812
        -1.13796 2.56038 0.571113
        -0.415614 1.82223 -0.435123
        -1.9005 1.72436 -1.02119
        -0.410435 1.77347 -0.25009
        -0.499414 2.11373 0.158022
        1.64491 1.05807 0.325982
        0.351342 0.319958 -0.64053
        0.790051 0.995111 -0.4815
        0.0660321 0.268728 0.971004
        -0.142322 2.27503 0.0220925
        0.162796 1.65346 0.0853751
        -0.00779302 0.524177 -0.340707
        -0.272956 1.84287 0.247189
        0.352745 1.24505 -0.275027
        -0.893805 1.40225 -1.2119
        -2.39142 0.749951 0.453365
        0.433529 2.2258 -1.03763
        1.56272 0.486541 0.590541
        1.59301 1.60187 -0.0725938
        -0.25073 0.608017 -0.13671
        -0.529925 1.77384 -0.0600772
        0.475097 1.7765 -0.392982
        -0.257014 2.39647 0.226951
        -0.700376 1.56307 -1.21933
        0.734904 1.97879 0.103753
        0.0172485 0.602669 0.235839
        0.397605 1.75254 0.24018
        -0.260567 1.22363 0.338766
        0.958131 1.68222 -0.28752
        0.470345 0.629027 0.581449
        0.307233 2.53472 -0.057693
        0.0415524 2.26182 0.432797
        -0.189104 1.52323 -0.538855
        -0.492973 2.02441 -0.0381134
        0.672604 1.3509 0.305499
        -0.210154 1.65013 0.0556932
        0.0687009 0.231656 -0.652369
        0.0651946 1.4178 -2.07104
        -0.0412173 -0.522071 1.28966
        0.440168 1.77402 -0.11363
        1.18577 1.46211 0.324447
        0.720244 2.83955 0.151515
        0.2667 0.369543 0.997044
        -0.567788 1.74503 0.340255
        -1.16953 0.673127 -0.502472
        -0.592919 0.959883 0.569596
        -0.861792 0.374834 0.242121
        -0.248872 2.20465 0.114541
        0.709538 3.00125 0.258081
        1.16055 2.83863 0.00400052
        -0.896714 1.85812 1.11671
        -0.08107 1.69278 0.727655
        -0.0255022 2.02703 -0.579703
        -0.578753 1.55314 1.21266
        0.359268 0.916717 0.987269
        -0.683333 0.991477 0.684036
        0.567648 1.46722 0.928721
        -1.42128 0.330765 -0.898781
        0.860578 0.93648 0.994584
        -0.463465 1.34467 -0.108387
        -0.522951 1.44711 0.423604
        0.524166 1.18926 -0.543952
        0.988171 1.68501 -0.862886
        0.368057 0.611378 0.0437796
        -1.14461 0.847728 0.372125
        0.737241 2.85809 -0.700962
        -0.313567 0.367676 -0.233871
        -2.05552 2.55386 -0.752228
        -0.698419 0.66479 0.736551
        -0.191387 1.47564 0.554429
        0.0134564 2.35899 -1.3629
        -0.080756 2.38448 1.59965
        0.165631 0.351786 -0.04139
        0.471132 1.22808 0.0855762
        0.122479 1.22448 -0.024854
        -0.314644 1.60697 -1.11105
        -0.762937 1.62216 -0.220401
        -0.284773 1.32234 -1.22922
        0.535333 1.49665 0.377041
        0.163736 2.639 -0.808198
        -1.60411 0.93612 0.350244
        -0.952918 1.40427 -0.925624
        -0.458119 0.854979 0.576464
        -0.32448 2.85175 0.640216
        -0.59015 0.308982 -0.250706
        -0.546119 0.870487 -0.720987
        -1.21822 2.26543 1.42348
        -0.142413 1.28296 0.709875
        -0.731962 0.651688 0.809678
        -1.08046 0.471149 -0.360204
        0.0409394 1.38309 -0.765347
        0.27778 -0.0168387 -0.580783
        0.5969 0.0973642 -0.0723829
        0.632347 2.5408 0.181786
        -0.0298731 1.13704 1.13779
        0.0335654 2.13523 1.35733
        -1.10407 2.07021 -1.16171
        -1.19629 1.23404 -0.748719
        -1.1247 1.28367 -0.461816
        -0.112087 0.824764 -0.363041
        -1.08985 1.21015 -0.32586
        -1.3448 1.69054 -1.49304
        -0.494687 2.22275 1.168
        -0.568529 0.976184 0.504333
        -0.230638 2.00279 -0.258819
        -0.746708 0.968342 0.926314
        -1.07471 0.491758 0.0600491
        -1.0152 3.06339 -0.916823
        -0.577698 1.78406 0.486424
        0.0708482 1.74658 -0.909573
        -0.776326 2.64427 0.830177
        -0.495839 -0.127863 -1.27835
        1.28905 1.50041 -0.298972
        0.0564357 1.38606 -0.449765
        0.180719 2.02361 0.247882
        0.651439 0.793211 0.236975
        -0.234701 2.62735 0.0572128
        1.08366 0.98704 -0.101701
        -0.603599 0.385945 0.452366
        -0.430664 1.15684 -0.886554
        0.951457 1.08105 0.199511
        0.300741 0.606898 0.612108
        -0.369348 2.30787 -0.474094
        0.983411 1.30301 0.428266
        -0.169261 0.997769 -0.00169009
        0.230697 0.445107 0.0360613
        -0.38069 2.03671 0.0644166
        0.611287 1.15513 -0.153604
        -0.635633 1.00607 -1.56351
        0.239125 2.78159 0.700705
        0.54896 0.416312 0.335346
        -2.33233 2.77895 1.8888
        1.49999 2.4371 -0.0474265
        0.443383 1.46187 0.733177
        0.0876482 1.13479 -0.745496
        1.05526 1.14891 -0.513104
        0.547275 1.79403 -1.2099
        1.3133 1.9122 -0.308125
        0.135205 -0.834458 -0.00858761
        0.129855 -1.73171 0.780477
        -0.00197563 -1.34058 -0.123272
        -0.576807 -0.834238 0.0914919
        1.36739 -1.52681 0.250118
        0.932041 -1.19916 -0.441934
        -1.68994 -1.09087 0.335826
        1.2486 -1.98147 0.00810487
        -0.2582 -1.51998 -0.486896
        -0.342433 -0.48668 0.0839529
        -0.822768 -3.1384 0.0228489
        -0.733352 -0.797835 -0.31084
        0.743724 -1.46345 0.784295
        1.00816 -1.07105 -0.581981
        -0.00568096 -0.861323 -0.795782
        0.338537 -1.32444 0.130864
        1.06248 -1.91192 -0.701849
        -0.17 -1.73628 -0.368266
        1.68899 -1.12966 0.0608121
        -0.80346 -1.09443 -0.289976
        -0.386603 -1.20326 0.562048
        -0.235117 -0.477239 -1.09518
        0.304036 -1.87813 -0.408258
        -0.367101 -1.5211 -1.00458
        -0.351522 -2.09735 1.33762
        0.0935439 -2.48637 0.438549
        0.419797 -1.7153 0.0955701
        0.674829 -1.02065 0.32916
        -0.339938 -1.02635 0.748513
        -0.640825 -1.42041 -1.21377
        -0.820891 -1.30899 -0.486256
        0.263057 -1.2552 -0.878965
        0.307863 -2.63582 0.847506
        -0.354054 -1.28673 -0.313436
        -0.989816 -1.65948 -0.416853
        0.520986 -2.45175 0.321476
        0.716246 -0.988305 0.130817
        0.507859 -1.60327 -0.0284297
        -0.192555 -0.851783 0.0187474
        -0.68208 -0.377358 0.377294
        -1.1918 -0.460777 0.209515
        -0.958711 -1.38359 -0.411497
        1.5852 -0.25933 0.54467
        0.221164 -0.785551 -0.192397
        -0.122776 -1.23705 -0.377411
        -0.418738 -1.26768 -0.229271
        0.273336 -0.914988 -0.912377
        -0.33739 -1.86077 -0.0398835
        -1.17125 -0.320802 -1.29781
        0.526606 -1.18818 -0.297451
        0.54988 -1.58054 1.54363
        0.939363 -1.45734 0.153684
        -0.950315 -1.38903 -0.551065
        0.983887 -0.781149 -0.586321
        0.196008 -1.30464 -1.52946
        -0.940575 -1.51323 -0.535237
        -0.660975 -2.19697 -0.584859
        1.07727 -0.646744 -0.0227058
        -0.386175 -2.04821 0.0821294
        -0.170394 -2.25966 -0.210135
        -1.12821 -0.477821 1.93094
        -1.56497 0.149433 -0.63091
        0.199909 -1.31397 -0.13975
        0.0816818 0.291135 -0.178297
        -0.4706 -1.06349 -0.0820381
        1.24679 -0.795715 -0.83273
        -0.876493 -0.903763 -0.248466
        1.41379 -1.0386 -1.04063
        -0.18378 0.227682 0.553676
        0.0387561 -1.48758 0.245147
        0.28814 -1.31859 0.781835
        0.304847 -1.02318 0.63649
        0.740329 0.0363657 -0.820394
        -0.280526 -1.38144 -0.865784
        1.20679 -1.95074 1.65662
        -0.101694 -3.56114 0.783875
        -0.650294 -0.243071 -0.388151
        -0.538483 -1.089 0.123097
        -0.126091 -1.64395 -0.51669
        -1.40693 -0.518792 0.210284
        0.367959 -1.50888 -0.143619
        -1.07138 -0.958423 -0.78998
        0.103948 -1.10369 -0.0468589
        0.76393 -0.572977 -0.855105
        -1.03466 -0.796251 0.785824
        -0.350601 -2.93301 -0.474708
        -0.0155229 -1.67242 -0.33297
        -1.23293 -1.77696 -0.671371
        0.432448 0.0858728 0.125322
        0.18889 -1.46885 -0.0132715
        0.409355 -0.756449 -0.676299
        1.39954 -2.0461 1.03433
        -0.713713 -1.46995 -1.06217
        1.56162 -1.26432 0.206115
        -0.0256115 -1.54116 0.0220489
        -0.12781 -1.58221 0.360477
        0.256047 -1.34014 -0.393369
        0.440745 -0.701016 -0.221901
        -0.316678 -1.6294 0.871401
        -0.883435 -1.28862 -0.39683
        0.612009 -1.06786 -0.807301
        -0.336574 -1.74886 0.558791
        0.0390228 -1.09673 -0.428796
        -0.349415 -0.983003 0.839582
        -0.473813 -0.00958997 0.0882051
        0.814029 -1.68824 0.0137923
        0.883346 -2.09817 -0.308934
        -0.745628 -1.26634 1.61947
        0.354691 -1.85168 -0.978234
        0.961525 -0.627062 -0.353103
        -0.294973 -1.35241 0.641481
        -1.15967 -0.70031 -1.21915
        -0.894357 -1.45237 0.152013
        0.316021 -0.848194 -0.884614
        -0.0396089 -1.45114 -0.91374
        0.547341 -3.04474 0.660331
        -0.222627 -0.604802 -0.464029
        0.0772553 -0.653571 -0.370539
        -0.341714 -2.43289 0.270332
        0.100741 -1.41051 0.520811
        0.618095 -2.03001 0.656628
        -0.637573 -0.746842 1.50438
        -0.526309 -0.668054 -0.366751
        1.26257 -1.7912 -0.548605
        -1.35158 -2.00815 0.675027
        0.967989 -2.09634 -0.456338
        0.552815 -3.56957 0.255415
        -1.42073 -0.456534 0.0148469
        0.96618 -0.638243 0.444002
        1.26507 -2.90257 1.0033
        1.02963 -0.294541 0.744118
        0.973497 -1.20585 -0.633272
        -0.199588 -1.60454 -1.34908
        -0.76316 -1.25809 0.762284
        -1.03383 -1.11037 -0.146663
        0.140553 -2.19895 -0.485211
        1.57505 -2.2462 0.624891
        1.03017 -1.48483 0.381587
        -1.74951 -2.17891 -0.0929358
        0.128494 -2.99671 -0.380204
        1.79289 -2.99161 -0.106804
        0.00224622 -0.991393 -0.0878556
        0.446738 -0.890595 0.278975
        0.507606 -2.83702 0.579921
        -1.40113 -1.00077 1.00548
        0.0338251 -0.70126 0.550239
        -0.148089 -0.831264 -0.125224
        1.63909 -2.49592 -0.978324
        -0.125814 -2.86415 -0.0362256
        -0.648809 -1.76434 0.0246183
        -0.15827 -1.30692 0.438794
        -0.185579 -1.9053 0.625719
        -1.96679 -1.82501 -1.0902
        0.434352 0.233715 0.162458
        -1.46502 -0.0833859 -2.26022
        -0.132528 -1.0584 -0.736687
        -0.886192 -1.1879 1.2316
        -0.0259301 -1.1251 -0.444425
        -0.121102 -0.308122 -0.490992
        0.367133 -1.55713 -1.28458
        -1.01031 -0.90355 0.626988
        -0.442215 -1.72949 0.492938
        0.515445 -0.574509 -0.471399
        -0.198581 -1.31934 -0.750083
        -1.54154 -1.12022 0.000387933
        -0.121531 -0.195983 -1.38209
        0.713389 -1.20368 -0.0709808
        -0.141362 -0.882716 0.0600166
        -0.226081 -2.24432 -0.659001
        0.0810298 -0.993907 1.58938
        1.14141 -1.44466 -0.997839
        -0.490119 -1.68252 -1.01842
        1.23958 -0.763943 -0.89881
        0.0693548 -1.23238 0.230719
        -0.36899 -0.77335 0.401559
        0.236361 -2.76545 0.444688
        -0.339734 -0.0521606 0.216192
        -0.045143 -0.210617 0.365205
        -0.139676 -2.00704 -0.786211
        0.915425 0.0976668 0.0363464
        1.28091 -0.177184 -1.83134
        0.506311 -1.15827 -0.334797
        -0.406454 -1.12426 -0.393505
        0.417471 -0.301203 0.710229
        -2.1106 0.720464 -1.35695
        -1.29247 -1.71075 -0.249045
        0.12234 -0.702518 -0.28852
        -0.959649 -1.43935 0.462453
        -0.65194 -0.544543 -0.237941
        0.260233 -1.63115 1.29109
        0.100599 0.0845802 0.747915
        0.370019 -1.34003 1.87968
        -1.04106 -0.951732 -0.0041659
        0.0459263 -0.278398 0.353178
        -0.400074 -1.18646 1.3218
        1.55169 -1.4194 0.0518001
        -0.177526 -0.934258 -0.175478
        0.308063 -0.0574894 -0.553383
        0.23964 -0.354902 0.814203
        -0.119079 0.165649 -0.854451
        0.0854771 0.751706 -0.217552
        -0.39038 -1.08659 -1.02802
        0.227888 1.16027 -0.41259
        -0.67867 -0.919775 -1.08923
        0.928343 0.817593 -0.322775
        0.994033 0.974412 -1.04479
        0.0360594 -0.0579571 0.285801
        -0.914511 0.521778 -0.0585417
        0.0964525 0.723634 0.0919802
        0.613468 0.738261 0.516672
        -0.0590497 0.916041 0.0869395
        0.217971 -0.378038 -0.452407
        1.77279 1.24419 0.218261
        1.03179 0.859166 1.31382
        -1.02552 0.754788 0.850278
        0.0654054 0.762897 0.883974
        -0.426812 0.743936 -0.153323
        0.962621 0.809458 1.27949
        0.356969 1.17981 1.25348
        -0.766911 -0.769285 1.37093
        -0.295329 2.20796 1.1382
        1.1327 -0.109164 0.18708
        -0.194882 1.15846 -0.0278878
        0.782022 0.458893 0.595863
        0.177446 -0.179709 -0.331091
        1.19021 1.9755 0.310604
        0.276588 0.447097 -0.137252
        -0.819399 1.87433 -0.561672
        -0.615658 1.09978 0.401461
        0.455585 1.45285 -0.138971
        -0.0218306 2.36442 -0.220937
        -0.107973 2.10601 0.627674
        0.23178 1.98349 0.0209123
        0.22048 1.60589 0.214095
        -0.0532099 1.6814 -0.0842409
        0.452175 0.874679 1.17016
        -0.534844 2.32837 -0.761418
        -0.62638 2.1128 -1.23362
        0.729336 3.66353 -0.778822
        -0.316308 1.19264 -0.858489
        0.551833 1.82397 1.35112
        -0.390637 0.829942 -0.11701
        0.790926 0.630358 -0.0550577
        -1.78393 0.769114 0.81086
        -0.894815 1.13597 0.692888
        -0.0837531 1.39494 0.218474
        -0.092625 1.45885 0.514007
        -0.677891 0.863271 0.432744
        -0.553255 1.71933 -0.310524
        -0.410413 1.26783 -0.473634
        0.28235 2.23553 0.985138
        0.524177 0.785177 -0.0618679
        0.339294 1.08908 -0.217215
        -1.00368 2.33176 -0.218872
        1.19256 0.696331 0.107858
        -1.30944 1.23671 -0.0251182
        0.19899 0.818856 1.15541
        -0.313051 2.25864 -0.173367
        -0.521885 1.65292 0.372289
        -0.333782 0.772928 -0.236313
        -0.197378 1.05462 -0.140268
        0.51097 -0.506633 1.77846
        0.144181 2.64866 -1.92848
        -1.5923 1.3379 0.00597766
        -1.21697 1.78014 -0.320832
        0.87249 0.753434 -0.514219
        -0.291169 1.29643 -0.282152
        0.139357 2.81871 -0.0194421
        -1.40437 1.73745 -0.226098
        0.654906 1.61996 -2.04963
        -1.69201 0.956815 -0.783322
        0.0964437 1.16809 0.367103
        -0.239491 2.31615 -0.953514
        0.198493 1.23993 0.372664
        -0.88481 1.17746 -0.519255
        0.221164 1.1915 -0.12586
        -0.704551 1.16231 0.436728
        0.0332278 1.92433 -0.282312
        0.242092 0.601372 0.503781
        0.266262 1.82341 0.395952
        -0.257232 1.34313 -0.505124
        -0.318791 2.27632 -0.882616
        0.507037 0.630079 0.15568
        0.694155 0.895571 -0.969547
        0.00526217 0.619764 0.0974309
        1.11861 1.57002 0.872777
        -0.907733 0.974657 0.384685
        -0.245452 1.60353 0.25371
        0.936496 -0.451595 -0.239943
        -0.120766 0.719093 -0.162628
        -0.263681 1.04075 -0.270342
        1.14108 1.89718 0.734291
        -0.480339 1.77946 0.0746237
        0.131871 1.34451 -1.23847
        0.451446 0.177896 0.815482
        -0.117695 1.61076 -1.18833
        -0.417483 2.64829 -0.0140449
        -0.532921 1.52979 -0.192247
        -0.442732 0.815211 1.26985
        -0.309471 2.20738 0.480935
        -0.117216 1.60316 0.216029
        0.293944 0.319636 -0.549091
        1.60236 2.40467 -0.656492
        0.902539 0.481749 0.267963
        0.100881 0.437168 0.0964752
        1.06683 0.583518 0.247432
        0.279713 1.84048 0.746465
        0.583277 0.708112 0.270789
        -1.4124 1.71112 -0.319713
        0.359939 1.23483 -0.341975
        -0.506882 1.66747 -0.00991711
        0.0386428 3.26391 0.138636
        1.02474 1.15723 -1.41161
        0.296829 1.90802 0.347094
        -0.951009 2.04096 0.663459
        -0.67498 0.3812 -0.0815628
        0.411173 1.49962 -0.0700959
        0.464862 2.48568 -0.272082
        -0.541318 0.718276 0.409321
        0.374271 3.50248 -0.556124
        -0.685679 0.770385 1.43802
        0.945339 0.540116 -1.46392
        1.27198 1.51037 0.638614
        -1.1132 1.02943 1.53408
        -0.878177 1.05942 -0.699453
        0.541029 1.49955 0.979764
        -1.61871 2.4112 0.308117
        -0.1098 1.3076 0.176348
        -0.299027 1.64595 0.394213
        -1.00578 0.485339 0.685494
        0.0736459 1.8878 1.07942
        0.36459 0.833367 0.480646
        -1.01737 0.660412 0.21016
        -0.0290912 1.0391 0.422812
        -0.196594 1.10198 -0.0225047
        0.118333 -0.0860175 -0.807963
        -0.57994 1.60147 1.12441
        0.105113 0.265197 -0.445278
        -0.252547 1.411 -1.35825
        -0.370736 0.855063 -0.767898
        -1.0649 0.676331 0.286744
        -0.03573 0.733988 -0.270136
        1.30581 1.59745 1.63389
        -1.04478 1.03744 -0.521441
        -0.787319 0.451937 1.09791
        -0.051371 1.2809 -1.29563
        -0.288067 1.48865 1.46727
        0.223269 0.459955 0.166621
        0.31035 2.40578 -0.861496
        0.697719 1.08652 0.112225
        -0.557068 2.29355 -0.882421
        0.0918314 1.01541 -0.467082
        0.593695 0.805358 -0.586075
        -0.723162 1.49558 -0.0817283
        -0.830375 1.00328 0.750366
        -0.67085 2.07635 1.06909
        0.937331 2.85839 -0.95819
        -0.546661 -1.21214 0.260087
        -0.346903 -1.85373 0.241897
        -0.637557 -0.337014 -0.512238
        -0.874422 -0.163647 0.248514
        -0.760091 -1.45975 0.0925163
        -0.426685 -2.43256 0.0897432
        0.244664 -0.991929 0.532049
        0.888689 -1.20445 -1.92949
        -0.695636 -0.553142 0.675722
        -0.0822302 -1.16017 0.862068
        -0.765743 -1.38747 -0.86175
        0.315314 -0.95679 -0.31633
        -0.334507 -0.906316 0.55037
        1.06623 -1.1761 0.211091
        -0.0842042 -0.927509 0.286376
        0.167749 -1.6248 1.1174
        -0.224899 -1.28966 0.461525
        0.0874883 -1.63614 -0.557696
        0.42692 -1.13006 -0.286626
        -0.288057 -1.39557 0.151277
        -0.10085 -0.463578 -0.704921
        -0.682199 -0.752003 -0.615777
        0.967147 -0.670462 -0.61152
        -0.27796 -0.781844 0.770719
        0.60222 -0.00539691 0.479748
        0.189655 -1.1879 0.494869
        0.321861 -1.11606 0.79867
        0.716218 -0.958497 -0.247001
        -0.331965 -2.65692 0.458439
        -0.144771 0.0914361 0.390677
        1.36858 -1.30711 0.510195
        1.43232 -2.65608 -1.18929
        -0.522748 -1.27646 0.269638
        -0.837758 -2.57217 -0.577001
        0.243561 -1.4204 -0.725052
        -0.300293 0.563624 0.0188313
        0.205791 -1.24729 -0.165264
        0.235293 -0.219748 0.511926
        0.0642141 -2.24609 0.452944
        -0.13203 -1.62997 -0.0649378
        0.746273 -3.16267 -0.0895256
        -0.289775 -0.138474 0.101765
        -0.370808 -1.8142 0.136267
        0.516351 -1.69017 0.696647
        -2.04664 -0.728301 0.509094
        -0.166167 -0.414622 -0.219021
        -0.640138 -1.49884 -0.893924
        0.324988 -0.0540448 1.02826
        -0.0567045 -1.08154 0.0970346
        -0.274783 -2.16013 0.71126
        -0.706777 -1.45495 0.435959
        0.0711765 -2.04476 -0.213519
        -0.220497 -1.60587 -0.214109
        -0.868068 -1.29808 -1.13985
        -1.26296 -1.82652 0.387886
        0.812652 0.605912 0.90086
        -0.51352 -1.74878 0.504569
        -0.389746 -0.80002 -0.772185
        0.611937 0.416404 -0.364131
        -0.269851 -1.92127 -0.10902
        -0.0918221 -1.01538 0.467085
        -0.380444 -0.916016 -0.212752
        0.407722 -1.11837 -0.0149564
        0.341814 -0.820723 -0.282657
        -0.285407 -0.976413 0.497437
        -0.704588 -0.423804 -0.317834
        -1.78321 -1.35779 -0.146269
        -0.283295 -1.88013 -1.28265
        -0.156986 -2.2895 0.508127
        -0.252401 -2.22971 -0.120684
        1.01387 -2.31992 0.569868
        0.728455 -1.48112 0.0925816
        -0.632509 -0.253646 0.710688
        0.363137 -1.36137 -1.47328
        1.59878 -2.33726 -0.118025
        0.523879 -1.28533 -0.742276
        0.782127 0.00510823 0.0304577
        0.0413796 -0.704664 0.811765
        0.324108 -1.5796 0.0617531
        0.761714 -1.91365 -1.29282
        0.0325055 -0.305073 -0.444495
        -0.185397 -1.2339 -0.913255
        -0.0921734 -1.45758 0.210109
        -0.195501 -1.13193 0.144936
        -0.145001 -2.23862 0.523566
        -0.068041 -1.33936 2.08282
        -0.222136 0.0180597 0.554028
        0.925639 -1.40378 1.62547
        -0.248628 -1.1097 -0.403873
        0.849975 -2.80247 0.92722
        0.82887 -0.885795 -0.0171289
        -0.0421332 -0.773917 0.575513
        -0.124893 -0.974572 0.979242
        0.375229 -2.4934 -0.519375
        -0.769813 -1.81829 -0.0198257
        1.42022 -1.83594 -0.347004
        -0.188058 -1.02057 0.477994
        -1.24906 -2.2452 0.415067