<?xml version="1.0" encoding="UTF-8" standalone="no" ?>
<VTKFile byte_order="LittleEndian" type="UnstructuredGrid" version="0.1">
  <UnstructuredGrid>
    <Piece NumberOfCells="0" NumberOfPoints="15094">
      <PointData>
        <DataArray Name="velocities" NumberOfComponents="3" format="ascii" type="Float32">
        -1.34076 2.9094 3.09327
        -4.82324 1.12021 1.40864
        -5.52625 -2.07235 -3.10353
        -4.79296 1.16817 5.11342
        -6.45638 5.988 3.40559
        2.25697 -4.07957 12.1033
        -3.06647 0.798831 0.00218789
        -2.21938 -1.55832 2.63879
        -0.354725 4.03813 2.93986
        -1.59008 -2.77349 3.88605
        6.51174 0.453497 4.42611
        -9.86588 -2.41101 2.51491
        -3.69115 -0.905369 3.83755
        -0.383256 1.56427 6.67168
        6.39397 1.11044 1.59458
        0.120274 -3.71704 1.4785
        -5.15312 3.62216 -0.317795
        -8.5484 -4.96294 3.86742
        0.249492 -2.01132 -6.00766
        -7.58598 -4.8769 6.31054
        -6.07145 6.73688 9.18364
        -2.15795 3.40997 -5.60737
        -8.79078 0.527159 8.72939
        4.23572 -4.49799 -3.54315
        4.42179 -9.5849 6.92768
        -1.25547 -0.949362 -1.22401
        4.1042 0.373253 1.39817
        1.05006 2.77679 -4.73937
        3.74647 5.02457 -7.85121
        -0.362184 4.49113 4.05175
        -6.12033 -1.25699 8.7537
        -8.42462 -4.63588 -2.60143
        1.58952 -10.5334 2.77384
        -3.13937 -5.16564 2.44993
        0.154283 -3.25664 0.48608
        9.69977 -5.39818 8.51164
        -8.80762 -4.01992 1.22299
        3.4517 -0.130409 2.34308
        -5.65182 -2.17697 -0.944546
        6.61035 -4.33888 5.69963
        1.8911 1.72965 2.16161
        -1.09419 1.55641 5.57494
        -2.75606 -5.8803 5.07233
        -7.11427 -1.57277 1.33485
        -0.516515 -7.01729 -5.0493
        2.66012 2.64034 4.4397
        -0.174836 -6.29394 -0.026949
        0.416596 -4.85258 2.08077
        -1.786 -2.35208 -8.09204
        -0.536956 1.01042 2.50768
        7.52068 -1.80982 6.36424
        2.50267 12.1122 -1.59654
        -6.20167 -3.17426 -4.16005
        -4.02905 -4.503 3.23762
        1.09892 -5.11616 8.43282
        -2.56255 -9.70316 3.24984
        3.92168 -10.1501 -0.61776
        -6.76539 1.36496 3.08542
        -3.82338 -5.08512 0.719626
        -1.44726 -0.717986 5.95833
        -0.488046 -1.1412 1.82443
        -1.73347 -2.04953 9.39814
        -0.975659 -2.30659 -9.56394
        -3.03665 0.608143 -1.96147
        1.28893 -9.44181 5.20826
        -5.30108 -3.00533 2.8803
        -8.64127 -4.72045 -1.44517
        1.00483 -1.62561 2.07728
        -6.9395 -10.2948 7.42602
        -5.81215 2.03623 3.07886
        -3.0359 -4.67335 10.211
        -7.82 -5.44883 2.84087
        -5.73473 4.91816 6.5626
        -4.9999 4.24901 6.33339
        -3.88771 -7.99153 -0.00707873
        -1.77078 -3.57969 -8.96436
        -7.32891 0.831093 5.23638
        -4.91171 -0.358048 2.48082
        0.900429 -2.92261 -1.52867
        -5.32894 -1.06075 -2.7518
        -6.04801 -2.46153 1.14325
        -4.60943 2.24758 -6.90057
        -7.1515 -2.83697 0.943685
        -4.00011 5.17683 8.3416
        -4.05016 -4.72185 4.68908
        -2.67989 0.401548 -3.54676
        -0.831815 -3.28985 1.71273
        -1.29036 1.79511 -3.97147
        -1.19366 -3.32014 -8.20777
        2.61901 -6.92276 3.2898
        -3.84228 -3.38459 3.47236
        -4.30278 -7.39819 -1.20893
        -3.17897 2.56324 4.20032
        4.96107 -1.25733 1.33621
        3.20041 2.66679 -2.6093
        -3.1428 2.64858 8.39814
        -9.15891 -8.42816 4.66755
        -5.40233 -0.683964 3.84562
        -6.17589 4.91383 0.245945
        -9.55981 -3.8389 0.00786362
        3.01542 -2.43121 2.24739
        -6.00236 -0.933107 -4.09937
        -4.52012 -0.46693 -0.811281
        -6.0716 -1.32374 -4.4848
        -2.27755 -0.565314 4.66892
        0.0292319 -0.675233 3.17147
        1.30447 -0.721075 5.5893
        -3.46766 -3.89412 0.186068
        -7.0893 -5.77644 0.0804892
        -3.44545 1.24646 4.95259
        -5.25778 -1.64044 -0.195484
        -2.25938 -2.7606 -1.36546
        -6.68928 -3.83172 3.63871
        -0.903558 3.37381 -4.59212
        -0.18419 -6.29216 2.91674
        -1.91788 1.74942 3.05891
        0.562027 2.0126 0.306262
        -0.205413 -5.90183 1.29317
        -7.04941 -2.80399 3.59808
        -2.51974 -3.44601 4.39719
        0.326935 4.16974 -1.47477
        1.49071 -1.76177 2.3327
        -0.764265 -4.86932 -1.09799
        -5.85383 4.49003 0.274643
        -6.13145 1.36007 6.94684
        -4.69479 5.17371 -4.10164
        -8.96125 -3.90419 -3.13093
        -9.17935 -2.0231 6.42705
        -9.57997 3.16817 3.89046
        -6.63586 4.38752 0.164187
        -7.26974 -1.66869 1.58541
        -7.21009 4.06584 -1.59592
        -2.26277 1.71109 -1.70554
        -5.81246 -0.186986 0.759038
        -5.10514 3.10216 4.42497
        -8.31738 2.92806 4.28415
        -7.50578 0.408912 -5.08063
        -5.71692 0.392792 2.62183
        -8.18146 3.7725 7.13383
        -9.54207 -2.88166 -0.212577
        -6.73341 -5.68405 -1.39241
        0.309408 1.32607 -3.63808
        -6.7911 -2.79694 0.477933
        -0.811961 -2.44747 2.16724
        -7.12277 4.84938 -2.7757
        -2.38104 -4.80767 -1.85134
        -0.996192 -0.0365181 4.28645
        -4.8638 1.26948 -1.96484
        -2.36189 3.36094 7.78619
        -3.34615 -2.81924 1.19766
        -0.0692519 -2.92859 -1.00911
        -2.01651 -0.377916 -0.930481
        -3.44615 5.45876 0.261073
        -9.84956 -2.79749 3.03128
        -6.52099 5.59564 3.09633
        -0.0907717 -1.66175 2.48962
        -2.64085 -3.17402 5.73472
        -7.14648 -2.95425 -1.2042
        -6.75457 -2.61451 -0.458312
        -11.3375 -7.08736 1.5725
        -3.45632 4.18482 4.73094
        -13.3636 -6.0832 1.55182
        -2.36233 4.93867 -2.78075
        0.297007 -3.78647 3.21318
        -5.88681 -3.55249 5.52136
        -1.57437 -2.459 4.68722
        -1.96479 -0.975873 -1.66261
        -1.70269 -0.0320863 3.81694
        -3.34953 -5.76423 -4.19592
        -4.79802 2.77427 0.786037
        -5.50447 1.04619 1.04095
        -5.85642 -3.5062 1.7275
        -2.15898 -3.70922 -2.65617
        -2.56059 -8.26224 1.50514
        -2.76797 -1.11578 1.54843
        -5.65821 2.01676 1.79734
        -4.31303 3.95783 -3.27953
        -0.320233 -1.4312 -1.63916
        -11.0757 -3.55522 0.317857
        -7.68334 -1.63993 0.696865
        -6.49197 -8.72695 1.6071
        0.120008 3.28856 -0.376433
        -4.35814 3.58807 -3.04397
        -3.2605 2.40832 -1.33668
        -5.88982 -3.60083 -2.75597
        -4.78828 5.60335 3.67806
        -6.32371 1.25007 -1.33971
        -4.39961 -7.85969 1.98454
        -6.77003 -0.380084 0.772356
        -3.6987 -3.14145 5.79184
        -4.86453 4.2947 0.325866
        -3.34251 0.880738 1.72529
        -0.896694 -4.32064 6.09587
        -2.7613 -4.1789 3.80158
        0.304079 1.44358 -1.87594
        -9.07034 1.52341 11.0741
        -1.41828 -0.872731 4.76669
        -3.49595 -6.44734 -0.713753
        3.23889 1.84966 1.37662
        -6.45413 -1.55994 -1.0849
        -6.29901 1.48778 4.27272
        -1.31131 2.11731 1.73796
        -3.92587 2.54027 -4.63664
        -4.14583 -4.27233 3.66158
        -2.43341 -6.65582 3.93613
        1.41681 -2.45536 -1.35273
        -1.59374 1.076 -0.216638
        -4.9299 4.74707 -1.17108
        -7.88776 -2.99725 -2.08823
        -5.73211 -2.13274 2.62475
        -3.70573 -1.15782 -0.324442
        1.31896 2.61945 0.464666
        -3.36506 2.59859 3.10647
        -1.66101 -3.26224 3.71275
        -1.70533 -5.2011 -3.61799
        -3.90802 6.29084 -6.70689
        -5.54537 -0.103802 -3.5712
        -6.56132 -3.21881 -4.23423
        -5.89338 4.08803 -1.64867
        -5.17272 -2.00011 0.842277
        0.418612 2.99956 5.79994
        -4.83622 2.42159 -0.677496
        -2.76415 2.54534 -1.36616
        -3.25538 -3.83562 -0.670487
        3.45532 -4.00663 2.9133
        1.37269 0.776034 -1.94162
        -4.81738 -1.29748 4.01292
        -8.80142 2.64891 2.28914
        -3.14587 4.50731 -8.63319
        1.37249 4.69307 5.64642
        -8.05542 0.756874 -0.517732
        -5.61865 -0.969037 1.89276
        -7.46397 3.24042 0.334664
        1.59411 3.46919 -0.548896
        -4.34719 0.341768 -1.13592
        -11.3848 -0.64224 -2.42956
        -7.16052 0.231184 -5.44209
        -0.163265 -6.64707 -3.60919
        -5.08593 -6.23186 6.84453
        -3.91943 -4.41307 -2.66756
        -3.42289 1.40093 -3.08673
        -4.81743 6.53064 5.89567
        -7.12371 2.17422 7.84777
        -4.97555 -0.0349581 -2.23448
        -0.174702 -2.3272 -2.02216
        -11.0101 -0.834295 -5.86727
        -0.54612 -6.50515 -1.91713
        -6.33807 0.91331 9.43498
        0.882172 -7.59139 1.51827
        -8.60319 -1.58724 0.773194
        -7.61726 3.92501 1.85025
        -3.67095 -0.25128 6.95873
        -2.29941 2.04197 -4.31536
        -1.83591 -0.779506 1.8384
        -0.602142 -4.6514 0.884561
        -1.04128 3.55686 8.7883
        -3.09107 -3.97766 3.09814
        -5.75114 2.97783 3.70401
        -4.83479 3.414 -1.76883
        -3.49174 -2.85303 0.433087
        -4.52647 -8.23255 -2.24553
        -3.22926 0.83054 4.11891
        -2.38418 -0.570132 -2.60298
        -5.49132 -0.672884 4.57222
        -7.23567 0.595605 -1.1975
        -3.16037 -6.38821 2.5216
        -7.46827 -0.584571 6.67593
        0.316994 -0.509647 -3.15383
        -3.00774 6.88792 -1.22005
        -6.21412 3.07259 3.86873
        -1.38049 -5.06023 2.80376
        -4.87027 0.931113 -2.07543
        -4.10232 -3.54008 2.70647
        -0.116075 1.18525 -0.296801
        -2.09493 -8.82775 1.88374
        -3.14125 -5.47392 3.90805
        -7.771 2.29425 -2.43768
        -1.66566 -0.657018 0.735884
        -3.70583 3.09455 -1.2225
        -4.77605 -1.02044 1.30734
        -3.40591 0.264687 -4.00618
        -4.05042 4.64568 -4.94449
        -0.576515 0.590567 -0.692917
        -2.51412 -8.51865 2.37018
        -6.59541 -3.55697 1.80437
        -3.53569 2.39225 -4.07334
        -0.695975 0.2541 -0.184916
        3.77994 -1.11848 -4.48305
        0.161332 -3.24485 1.1114
        0.689687 0.754739 -2.06136
        -4.30043 -1.57567 8.55828
        -4.5231 -5.20982 4.19815
        -4.31905 -3.23644 -5.57415
        -0.654172 -3.47281 -1.50619
        -3.05376 2.02217 3.62775
        -6.95372 -1.95102 5.69033
        -3.37454 2.74196 -0.219103
        -2.61572 4.91904 -0.64277
        -2.22097 2.94855 1.62713
        -5.15763 -1.11727 -4.69244
        1.53489 2.11704 1.04279
        -4.37311 4.25784 0.0758253
        0.184276 0.624773 0.236422
        2.20296 -3.11974 3.06756
        -2.44829 -1.39638 1.51733
        3.84299 1.58407 2.32946
        -1.06162 3.57363 0.293179
        -4.9208 -1.113 5.25952
        1.69609 -6.91576 -0.397425
        -5.90936 -1.93033 7.77092
        -0.523098 0.0650574 1.97695
        0.394535 4.16539 3.13308
        -5.73863 0.58516 -6.37774
        -5.38546 -4.40341 0.877183
        1.47638 2.90625 -1.39047
        0.505309 -4.50246 2.38308
        -2.52476 -5.322 -0.122216
        -1.63602 2.33356 -2.59538
        -3.59547 3.55423 -6.91169
        -8.57068 0.8634 4.6194
        3.45589 -0.127014 -3.27932
        6.13696 1.98533 1.23279
        0.533025 -0.957493 -2.74891
        2.85554 -0.153148 4.24127
        4.15129 -2.91331 4.33515
        1.77259 -4.72304 2.06663
        6.21924 0.0836679 -0.642188
        -5.32565 -0.463622 -7.96544
        -4.29987 2.59632 -1.79655
        -2.28679 -5.2088 5.06953
        6.03997 -1.54445 -0.553744
        1.00778 -0.8423 2.193
        2.76705 -5.5184 0.571364
        -3.30995 -1.66847 -10.1179
        -6.46004 -4.33389 -5.92451
        -3.84172 -0.302714 1.70616
        -3.00849 3.55104 2.36686
        -0.0874325 5.96055 2.88419
        5.63245 -3.01938 -3.75728
        -4.6446 -4.34666 2.41368
        0.722383 -4.34273 -2.97919
        -0.241984 -3.60621 3.70743
        -0.904286 6.99627 -3.87938
        -7.33456 10.2628 -0.217915
        1.57578 -0.876574 -0.237864
        1.2278 0.36401 -1.83489
        5.94286 2.06374 -0.0807322
        0.596209 1.09571 2.42719
        -5.52871 -5.59732 2.46726
        -11.5687 3.98692 -2.13481
        -2.87352 1.4274 -0.823387
        -3.77009 -2.97824 -7.54206
        -6.10345 0.735053 0.720438
        -5.9054 -2.03994 1.3358
        -3.68837 -5.36322 4.54376
        0.253977 0.148149 -1.62251
        -7.30052 -4.04538 1.55717
        -3.0289 -9.85408 -1.13527
        -4.03155 -4.92003 0.503495
        1.4779 -3.31628 1.41459
        -0.286518 4.50765 6.33686
        3.64705 1.43333 -0.945663
        -3.93223 0.113644 3.19138
        -3.13671 -1.09424 5.97504
        -3.90937 -2.27946 -7.49822
        3.12422 6.59672 -4.34702
        2.20811 -5.16617 -1.27479
        -3.84938 -0.567859 8.08508
        -3.25523 4.57064 -4.65248
        1.30655 -3.10315 3.5108
        -2.0703 -2.61872 -0.315842
        -1.36741 3.25784 5.26827
        -0.596868 6.25551 -1.97121
        2.04506 -2.27172 4.59105
        -5.84269 3.37257 2.22296
        -4.16381 -2.60736 4.9789
        0.0183087 3.64669 -0.961379
        -3.31924 5.59713 0.443393
        2.66067 -3.05159 3.23175
        2.13328 3.70528 3.00096
        -4.55655 1.53454 -1.71749
        0.599891 3.12268 0.333368
        -0.544146 6.79366 -7.37005
        2.85108 -2.37944 1.88134
        -6.93441 -3.35564 6.18902
        -4.00445 -4.67076 1.74635
        -0.140504 1.33016 8.36643
        0.117642 -5.40426 4.05232
        1.38365 -4.6618 2.07583
        -2.4629 -6.1016 -1.96002
        -2.10595 -4.89622 0.78063
        6.77667 -1.92662 0.540877
        0.693165 -3.32643 1.59964
        -0.417593 0.613507 3.70802
        -4.12384 0.814842 2.60353
        -0.980093 0.64893 -0.180833
        8.61519 2.6632 0.364415
        -3.78238 3.76097 0.906594
        1.39525 1.3679 0.145384
        -1.539 -0.662603 -0.876927
        4.6784 5.29349 -7.58759
        -2.81084 0.680069 0.869405
        6.19793 -1.42925 -2.54779
        -2.99523 1.41992 -4.60553
        0.380941 -2.07193 1.15985
        -4.60652 -3.28506 2.25893
        -2.53917 -7.24079 1.71187
        0.252919 -3.52696 -1.7496
        -1.11347 -4.47622 2.31153
        -1.74385 -2.23931 10.5719
        -4.15866 1.05595 0.164774
        -5.85099 -1.24189 5.07887
        6.19774 -5.71565 5.1416
        -4.20396 -2.0506 3.87778
        2.63445 -3.62995 -0.751813
        -1.10775 -8.58601 -6.66025
        -3.92489 8.76129 -1.24822
        0.917801 0.244901 -2.49057
        4.92743 -1.20788 7.09049
        0.85424 -6.50537 3.3258
        5.88211 -2.85366 2.66749
        2.29246 -1.53379 3.35925
        -1.74702 -3.45947 3.09804
        4.30137 -6.15572 9.50069
        2.28899 1.48472 0.405334
        -4.50385 -2.94413 9.40279
        2.3894 -0.297026 4.35559
        -1.90862 4.57904 -1.53219
        1.15458 1.60132 -0.078794
        7.46249 0.233608 5.07114
        1.03187 -6.32259 5.36681
        1.19568 9.15367 -6.34574
        -1.25436 -0.983977 -0.191117
        7.22215 1.3578 2.90286
        -2.44482 -0.935459 6.09704
        -0.792504 -5.78135 1.76835
        2.34394 -3.03861 2.93251
        2.0411 -2.04953 1.35007
        -3.21673 -2.05258 1.14587
        -3.28124 1.89983 0.139471
        3.01039 -2.89959 6.59016
        0.64205 -5.11461 -3.19081
        -0.558244 5.34145 2.94663
        -0.567006 -1.57669 1.86844
        1.039 2.22676 2.61897
        5.85808 -1.59981 10.5323
        -2.20348 -7.39092 6.59711
        -1.37511 -2.27834 -5.18392
        1.24305 6.15584 -1.9265
        4.68398 0.615654 1.73576
        -5.12923 -4.43204 -0.914707
        -4.3249 -0.14124 -0.543158
        -5.79955 2.58376 -6.23306
        -3.22475 -4.17427 2.88931
        0.782094 -4.91663 -1.08473
        4.46772 -2.39276 2.02696
        -4.02737 -3.19568 -6.39972
        -0.247497 -2.23012 -1.01799
        0.923668 2.73182 6.64928
        2.79467 -0.87615 -6.19996
        2.13025 -3.13015 -0.685128
        0.812909 -5.00231 3.85183
        2.89851 -2.37895 0.404042
        3.56337 -0.0886875 1.41538
        -9.56139 0.950575 -0.101326
        8.74826 6.2823 1.92209
        3.11622 -3.21722 5.26276
        2.71731 -1.65615 1.01474
        -3.26994 -2.54696 -1.21874
        -3.0387 2.72124 0.611442
        -1.98611 2.53675 1.26468
        -3.46173 -0.1847 4.44679
        -2.84796 -8.47604 2.56735
        3.54362 -0.170843 0.401488
        -2.63965 -0.46196 -1.4807
        -2.26207 -2.05272 6.56127
        3.49272 4.45918 0.0508002
        -1.51014 3.89454 0.323508
        1.16698 3.33201 2.3277
        9.64545 1.41764 2.04816
        -6.42381 1.08661 5.07452
        0.928734 2.14279 5.58215
        8.03707 0.665563 -2.12062
        -2.81044 -0.780812 2.91867
        0.956945 -4.83563 -3.47263
        2.85848 -2.27108 2.89153
        0.836017 5.39703 4.96369
        5.72106 -4.46013 -2.89641
        3.27296 -2.50421 -0.901502
        3.01185 -4.28256 1.25946
        -1.61763 -1.93694 -2.11159
        -0.174594 -2.4793 2.58846
        -5.8888 -0.349187 1.80466
        2.72174 -0.595033 4.7482
        2.69558 -5.96504 3.50577
        2.55496 4.23739 4.05221
        -0.676026 -3.08604 -1.32522
        -0.720191 -4.13576 2.42473
        1.35511 -6.12267 2.0579
        5.33529 0.507298 3.15401
        -1.7517 -3.38738 2.64948
        -2.58752 -6.20499 0.476789
        2.73246 -4.89003 -1.11336
        -2.32025 8.9556 -3.42271
        4.19174 0.655224 -0.459688
        3.89792 -1.94046 -3.07679
        0.51408 1.65449 0.743799
        1.51612 4.70283 2.72277
        -0.574058 -3.00598 1.97437
        -0.253385 0.329567 1.06728
        4.35482 -5.10277 5.66112
        3.66312 -2.95877 2.28885
        0.859149 0.6834 -0.206223
        2.94582 -2.0851 -4.28523
        -0.0914095 4.57276 -1.53715
        -1.88531 2.32098 3.13537
        7.09181 1.66096 -2.76939
        -3.18752 2.01954 0.25345
        0.246604 3.39484 0.415265
        4.04401 -0.202101 -0.161792
        9.21867 -1.15355 4.22245
        2.25113 1.92496 1.12284
        2.87853 2.25042 7.13866
        -0.354557 -0.739117 1.38384
        3.79928 -0.674524 -6.24225
        4.84427 0.753632 0.514472
        0.473175 0.99283 4.70333
        1.19025 -3.97235 1.03881
        -2.73204 -5.14019 8.18386
        6.4896 5.63445 2.99946
        -1.63123 -5.35066 -0.8659
        3.40352 -0.830008 1.99322
        1.67176 0.52078 1.59034
        1.55602 7.14483 -3.49607
        -0.716637 -0.794552 3.09156
        6.81973 0.852358 6.15073
        2.11458 2.86745 7.61899
        -0.782082 0.216123 -6.86088
        4.4525 -5.80141 -1.3578
        5.95463 -0.00517575 0.527374
        2.51948 -0.566669 -0.489292
        2.38364 0.094677 3.48629
        3.02853 1.77914 -1.20562
        1.27206 0.358699 -2.63956
        0.663516 -1.61358 5.62854
        5.30097 0.558002 2.23991
        -0.814792 -2.28346 5.8798
        1.53836 4.13314 2.37659
        2.40422 3.03848 1.53623
        1.26977 -4.57486 3.24402
        -0.56796 7.49019 7.5856
        -2.64083 -3.27079 -0.20298
        2.26777 -2.1979 -1.5475
        2.24167 -0.959183 0.52833
        11.0618 -0.137088 -3.26191
        -1.78475 -2.48902 2.02842
        -3.22579 3.66596 7.3429
        2.83171 0.149015 -0.1028
        4.4409 10.202 0.451845
        -0.585361 -3.58057 2.42635
        -2.26571 0.0389127 -0.598712
        1.56345 -0.882515 -6.50488
        -1.43243 -2.05953 -3.1763
        -0.0609701 -7.00988 -1.55264
        5.6344 -1.52035 4.05961
        4.48112 4.04073 7.38416
        1.62683 5.87001 1.58835
        4.52762 -2.49475 3.291
        0.714754 3.24061 3.65757
        4.31328 -1.15662 -2.04571
        0.725261 -2.64118 3.92305
        -1.8153 3.77984 0.631537
        0.639694 -1.93457 0.58744
        5.40017 -3.30668 -0.192944
        -1.57701 -4.85234 5.46797
        -4.21238 -1.1407 4.81056
        -4.06873 5.75243 0.371432
        10.0841 6.26609 3.79751
        9.32136 4.36626 1.40737
        2.97202 0.424731 1.17338
        2.04121 0.264247 -3.03891
        -2.69095 -0.557589 -1.63002
        0.0520219 -5.97802 -5.40354
        -6.75645 0.922883 -3.22669
        2.54867 2.64036 3.82944
        -3.33812 -0.831239 0.426113
        2.07885 -4.74958 -3.25459
        2.85061 1.34282 6.16356
        1.66296 3.94107 8.18447
        3.87249 -2.79651 -5.73728
        1.99013 -8.60783 1.30572
        1.18976 1.18037 1.88272
        4.92318 1.84037 -7.97981
        4.2424 -2.50126 -1.23711
        -2.70209 -1.80643 5.00802
        1.35951 3.80598 -0.581325
        7.83654 -0.896685 -1.08341
        0.842174 0.867821 0.449783
        5.78225 -0.0886362 -2.95646
        5.61155 -3.55824 -3.82879
        2.0788 0.869201 -0.229722
        2.97768 1.74446 1.36869
        4.6076 1.53679 3.16183
        0.427023 -0.830945 -4.23998
        4.18486 -2.17806 -1.72453
        2.12209 6.3295 4.68099
        0.0331198 -6.35358 1.99694
        0.533336 3.19253 1.13954
        0.786078 -6.35939 1.7857
        4.47123 -0.281905 -1.24742
        9.68166 3.0582 0.527902
        0.319735 4.57582 5.9119
        2.36641 3.68429 5.66646
        0.18129 0.946446 4.79184
        -0.844736 6.02211 2.9787
        7.20034 -3.46503 0.905742
        6.30713 -2.16605 -2.21535
        11.0959 0.548984 -0.660586
        4.37985 0.700706 -6.68522
        5.4404 0.0564207 1.10082
        3.44697 -3.6732 -1.79781
        3.3789 -3.78087 3.27779
        2.85565 -1.78524 0.973586
        3.9666 -5.16163 4.58899
        2.10474 5.71011 -3.9297
        -0.278866 -4.01162 6.0639
        6.7087 -6.22259 1.10085
        2.72663 1.92552 2.81075
        0.352961 -2.1712 5.58848
        1.06761 -2.53903 1.77436
        5.58696 0.561861 -0.82396
        2.48437 1.35825 2.3631
        4.86889 0.267956 3.79099
        -1.65178 4.60935 0.872095
        8.11905 1.73453 0.162707
        3.72075 -2.44033 2.14022
        4.90331 -4.12316 -0.642277
        3.90092 0.45758 0.432356
        4.08367 -2.51225 -3.45661
        6.02307 2.31124 0.0267944
        3.20941 0.668939 0.113234
        2.37928 2.67755 -0.37514
        9.17057 1.48577 -4.56428
        2.88605 -5.92998 1.57587
        -1.96566 3.11632 4.65055
        -2.75029 -0.0828243 0.282543
        3.32264 -2.10583 1.80993
        0.182199 -1.50814 3.70591
        -1.91886 -1.65986 4.99571
        4.79199 6.04833 3.34731
        0.258437 1.15404 -0.581927
        -6.07393 -4.74055 1.93606
        3.21923 3.70292 -5.05612
        1.11637 1.32899 -1.3656
        0.863604 4.54563 3.2959
        1.06774 3.86802 -7.99335
        1.38727 2.64374 -2.74567
        2.14607 1.65021 2.03638
        1.87093 1.02808 2.71849
        0.158507 0.208606 1.58524
        6.90325 5.46814 1.93273
        -2.07611 -6.38455 1.6771
        0.995851 -0.249189 -2.18702
        7.83498 -2.94123 -1.40808
        4.46295 1.82227 -3.98252
        7.11775 -1.10224 0.51013
        -3.11008 2.38862 3.88714
        -3.33301 -4.99557 5.58752
        -1.14102 3.64844 2.98744
        7.02863 3.28806 -5.83728
        1.73391 0.109622 4.29306
        4.22027 -3.80974 -1.23971
        0.0409631 -0.996086 5.30153
        1.5291 2.0659 -3.63925
        -0.783797 1.25369 1.35003
        2.9979 0.716639 3.68393
        2.59388 -0.551091 0.684875
        10.0122 2.45347 -2.18179
        3.42846 2.05221 9.9108
        6.69156 1.11856 1.70501
        2.42417 -1.8477 0.0395182
        0.97178 -1.58137 -2.24085
        0.856893 6.46869 2.14778
        6.18011 -1.97801 6.74991
        2.90774 -4.30939 2.8295
        1.60947 2.2613 4.25944
        2.08145 1.86615 3.94281
        0.734978 -3.80773 -5.87469
        0.118252 4.80677 -0.888587
        6.54372 0.43799 4.32966
        5.50661 1.73461 1.95037
        1.86027 6.42458 2.24469
        5.17805 -2.7886 5.08808
        -4.3111 -0.748162 -0.182567
        -1.85439 5.2486 6.70446
        3.66798 -1.40736 1.40336
        3.2287 -3.33803 3.91644
        5.53062 -1.72291 3.30733
        9.26798 6.07756 -0.565891
        8.38282 2.22108 -2.5306
        -0.386457 7.34541 3.77065
        6.87137 2.46799 0.124835
        2.98169 4.74392 -1.24528
        6.79156 -2.13765 -6.09473
        0.911847 3.98623 2.19626
        5.25973 -2.0159 1.29496
        2.67009 -2.25037 2.52979
        3.5345 -2.5399 3.79662
        1.47871 0.311238 -3.8182
        1.12682 4.87731 3.15156
        5.2488 2.67899 2.76492
        4.01718 2.26502 0.518371
        1.12159 -3.8098 6.70124
        0.429768 1.6551 3.65454
        8.58364 3.6148 2.2065
        5.55021 5.50402 1.2517
        1.6578 2.625 1.62202
        4.15306 -0.304461 3.42698
        0.762375 -2.8923 0.748909
        1.10621 1.40617 -0.189753
        3.55963 0.71865 -4.66332
        -2.62073 2.11763 5.80376
        -3.25509 -4.77842 2.33944
        7.73215 -1.70317 4.35666
        4.87876 8.68627 0.0713365
        7.66586 -1.50333 7.19367
        -1.32126 -7.1879 7.77185
        4.87918 -5.7684 1.40858
        4.23061 1.99214 3.49961
        5.50638 -0.913408 0.612502
        5.5371 -0.710498 -4.11645
        7.7273 -5.50363 -2.10009
        4.59467 1.85048 2.68642
        7.6165 1.34002 -4.26643
        5.37435 -0.0745755 -5.41523
        -0.347272 -4.9329 -1.18877
        3.53084 -6.82913 -1.43187
        5.69881 -4.04533 6.0196
        0.604031 -4.36298 6.73007
        5.29192 1.64208 10.4357
        -0.489141 1.38157 2.20045
        -1.84135 -4.41687 2.01239
        -0.594284 -2.69876 2.8899
        3.52592 0.471241 2.39595
        5.45812 3.79214 -2.12312
        1.94291 -5.09249 3.11223
        2.40947 -5.15972 -0.657696
        9.23588 -1.22612 0.561835
        0.0684855 -0.30147 -1.23082
        1.26259 -1.24411 2.61026
        1.42124 -3.18888 2.93387
        4.59014 -1.7854 1.49238
        3.86956 -1.77965 1.88737
        4.03503 10.5259 2.64602
        4.4336 -2.46123 4.77019
        2.04421 0.946363 1.86112
        3.27189 2.30844 -0.668394
        2.3252 -4.98178 1.93314
        3.87661 -1.23901 4.52205
        -0.989052 1.00968 -1.01431
        4.49648 1.99402 1.81321
        -1.68237 5.24858 2.50827
        4.36838 -3.13364 -1.77223
        9.56076 -0.83951 2.01409
        -0.153335 0.429003 0.283809
        2.51728 -4.85521 1.23384
        -2.90787 -3.16251 -1.93288
        7.80451 -4.2642 -2.58623
        2.09472 -4.74769 -1.16527
        4.23909 -1.67506 -0.203501
        3.59988 -1.0544 0.850759
        -1.44655 -0.312856 3.54024
        -0.10871 -2.18898 3.92059
        2.02753 3.29122 -1.27984
        1.56325 6.76676 1.90705
        5.40937 -1.28071 1.1615
        3.9515 -0.719843 1.53269
        4.27381 2.45412 -2.1822
        4.18114 -1.51464 0.513726
        2.95278 4.4182 4.02508
        3.28936 -0.367575 5.91611
        5.08941 0.777461 1.46531
        3.91989 0.9504 0.70183
        1.37493 -1.0369 0.462429
        3.97588 7.78755 -0.840537
        2.32152 2.50976 1.94463
        7.02869 -2.49298 -3.13812
        -2.11209 -0.976258 -2.64881
        -2.92823 4.61546 6.96505
        -5.35234 -1.35934 3.2505
        3.30596 0.818318 -4.04688
        1.09557 -0.0846045 -2.429
        0.0612489 -0.755948 -0.384395
        3.44584 -2.90749 -2.15752
        4.88754 -0.732234 2.96541
        5.01237 -3.55318 -0.0612431
        4.77593 -1.4423 6.02539
        6.48138 1.48974 1.85692
        -0.847733 -0.541113 1.14426
        3.44912 -3.67833 3.10084
        1.19727 -1.73874 2.79542
        1.0578 1.11134 0.48769
        4.1282 1.37984 -2.47476
        5.9529 3.14489 4.89775
        5.02197 1.29095 -7.17009
        3.98731 0.493557 2.36945
        4.97826 1.82673 5.29019
        -0.744627 3.4151 -0.140413
        2.99794 2.44288 -3.04764
        7.422 -2.2301 3.17672
        -1.19055 2.82412 -2.6604
        4.10745 -0.827222 1.4572
        0.392115 -4.47428 -0.632454
        8.69766 -1.19224 3.48104
        3.2624 -0.0411453 -0.155666
        4.39592 0.520913 4.34776
        2.69299 3.97563 -2.21445
        3.93376 5.61319 0.841854
        3.1364 0.981324 1.31803
        5.28353 -0.247 -2.15346
        2.31757 1.09297 -2.25236
        3.41536 -4.39942 -1.23068
        8.4858 -5.36948 2.31178
        -1.38352 -7.56003 -2.37614
        5.21072 -0.479319 3.80935
        9.37544 -4.68922 -1.32276
        0.634884 0.124379 4.03039
        3.31505 -6.28809 -0.96606
        6.59918 -3.36203 0.471654
        5.99586 2.96153 0.429276
        1.60603 -2.16275 2.86675
        5.37044 -2.65179 2.87731
        -2.62783 -1.63404 -0.85053
        0.549851 5.90355 5.43446
        2.30643 2.66104 2.36846
        -2.86315 -2.80559 2.72339
        -1.57138 -5.28761 0.769081
        1.54286 0.630518 3.96349
        1.13245 9.0546 1.85477
        0.542398 -0.862692 2.74719
        0.970281 -0.497135 -1.27037
        0.575494 0.137641 -4.77747
        3.76662 1.79856 -2.30995
        7.95834 -0.341509 1.10175
        0.128654 -1.26317 7.13429
        2.68763 3.9575 3.91121
        2.65622 -2.87219 0.0904494
        4.82194 -3.14307 3.03267
        3.06175 4.44495 -2.26732
        4.30106 1.03467 -2.83257
        0.999481 2.79146 -3.98527
        5.56481 3.04281 -4.72505
        3.20494 1.51767 -2.77963
        5.48603 -6.20393 6.92591
        5.54641 -2.26706 3.038
        0.714718 -3.97389 -7.32228
        1.79859 -0.274114 4.65456
        4.10084 1.64831 1.86252
        4.98975 4.62267 7.95219
        1.75421 1.67034 -2.54658
        4.05284 3.89487 0.793157
        5.83634 -4.93158 0.332745
        4.7129 -2.18956 2.28865
        -3.4632 -2.35041 3.37379
        7.4786 1.79409 2.84735
        -2.49477 -2.14624 -1.76484
        1.79716 -0.625135 2.45575
        2.61548 -2.52858 3.66691
        2.341 2.02437 -0.123109
        3.75568 0.859096 3.78888
        9.88331 -2.1869 1.32862
        3.44248 -3.35473 -3.90182
        3.34096 -6.58736 -0.00693099
        2.48168 -3.13073 -3.33768
        0.930165 -3.19758 -5.67627
        1.44459 0.980659 -3.55023
        0.414551 -4.75926 -0.460609
        7.0346 1.07378 -0.47577
        9.01409 -0.858163 1.59061
        2.30781 2.55942 -1.52366
        3.3647 0.581085 -0.926255