<?xml version="1.0" encoding="UTF-8" standalone="no" ?>
<VTKFile byte_order="LittleEndian" type="UnstructuredGrid" version="0.1">
  <UnstructuredGrid>
    <Piece NumberOfCells="0" NumberOfPoints="15094">
      <PointData>
        <DataArray Name="velocities" NumberOfComponents="3" format="ascii" type="Float32">
        -1.4703 3.87264 1.12166
        8.69006 -2.5477 1.69767
        3.27704 -3.39168 -2.17995
        1.42568 2.89526 1.36647
        -0.943922 -0.606924 0.773016
        -0.343268 2.02965 -0.802233
        -1.3669 3.25756 4.98939
        2.02753 -2.44236 -1.33611
        2.45567 -1.34694 -3.0381
        -4.95658 0.28386 4.61583
        1.23958 1.15918 -0.505333
        0.206049 -0.50335 1.633
        2.32613 1.98212 5.40474
        2.57379 -4.66394 -2.61115
        -0.496239 1.16794 5.05352
        2.12091 0.615918 -4.29692
        0.501804 0.404902 0.840792
        -1.9541 -3.37319 -0.22567
        -0.915277 0.676487 0.312647
        -3.66705 2.64392 3.72267
        0.971823 -4.35023 1.65357
        -0.266161 -2.82384 -4.05409
        3.37419 8.57444 4.03685
        -2.99763 -5.08003 -2.33216
        2.73286 4.82949 -2.87324
        -0.821616 0.830166 7.95957
        -5.40569 5.7369 9.81961
        -3.0916 -3.52962 -2.21608
        2.08596 -1.5954 3.02843
        5.15419 0.828453 0.962733
        0.996181 2.00137 4.03851
        5.18506 6.1708 -1.80436
        0.829582 -1.47681 3.713
        -0.260532 3.34515 1.05986
        0.308441 -0.958298 -1.20328
        -2.5202 4.63745 1.32357
        -3.69721 4.80326 5.1714
        1.8327 5.95793 -6.23716
        5.74685 0.890412 3.32119
        4.68596 0.374467 -2.06797
        -2.10668 -1.39332 -0.322956
        0.632025 -0.123938 -2.80344
        2.63211 -1.05275 -9.2404
        2.54433 -6.88394 5.88703
        -3.36276 1.38282 -2.24824
        -1.31104 2.13658 0.555679
        -3.74566 -0.352803 6.43804
        -1.30034 2.46295 0.857049
        -1.61541 1.40394 -5.08122
        3.69787 5.69308 -1.06046
        3.38912 4.74842 3.21597
        7.34246 0.545742 2.3248
        -3.74841 -3.30524 -1.60689
        -4.47927 3.68445 3.50901
        0.955705 -0.950355 -2.55341
        -5.18591 -3.85551 -2.82324
        2.03682 -3.45327 1.18448
        -3.66128 -1.68946 -6.3443
        6.92334 4.44707 0.750808
        -4.18251 -0.893244 -0.34036
        2.38373 0.20826 0.419737
        -2.58885 1.92833 -0.763207
        -2.46605 1.32072 -5.97726
        2.86067 -2.00324 -0.309852
        2.959 2.60836 -1.16705
        -3.49328 -1.55296 4.38759
        3.54974 -1.06907 4.7167
        2.46679 4.59587 0.455205
        -5.26947 3.18899 -4.78778
        -0.457508 -4.14873 -8.1291
        2.46774 0.271769 -0.0768488
        3.18382 -4.50303 2.16073
        2.71217 2.00481 4.42185
        0.0498201 -4.24217 -0.429869
        -0.410541 2.29059 1.30589
        -3.44845 1.0077 -7.48821
        -0.642889 -1.05419 0.653728
        -5.21403 -1.17273 -0.0978682
        -3.86128 1.9429 -4.35572
        4.19215 2.4413 4.36539
        -1.95025 -1.4119 4.78003
        2.39967 2.24966 -0.0683281
        2.29435 -1.466 5.40986
        0.820714 2.18924 -4.70281
        -1.67774 1.83454 -2.11469
        3.13322 4.4728 -0.694191
        4.66247 3.90654 2.76378
        2.70977 2.26066 1.09628
        1.11241 -8.92906 -1.21272
        1.15433 -1.81426 -0.149656
        -1.77547 -3.43806 -1.44511
        0.833371 2.24684 0.830561
        3.45614 -1.35284 -3.61566
        4.18737 8.19022 2.58975
        -0.263079 0.0968825 -1.82379
        -1.14371 -2.5845 1.16001
        3.36893 -2.59718 -1.23523
        2.69629 0.873649 -0.896154
        6.96975 0.585249 -2.8401
        -0.835117 -1.2811 -2.49171
        9.80423 -3.30655 -0.373793
        2.96897 -0.452569 -0.495998
        0.540088 3.84232 0.294409
        0.485947 -6.51311 -2.80816
        -1.14261 -3.44037 1.4734
        -4.01813 -2.22124 -0.190552
        4.81417 -3.52125 -1.6476
        1.57413 5.78963 7.06896
        -1.62599 -1.61187 -1.40393
        5.53754 3.13149 -4.38369
        -0.945075 -3.90563 -3.83184
        2.14313 6.26865 -3.5147
        -1.55717 3.73347 1.96486
        1.75897 -3.53153 -4.16303
        1.54382 2.77934 -3.78725
        3.05325 -2.93583 3.56212
        0.0132467 -0.999926 3.70815
        -0.153772 2.62133 3.05255
        -0.995215 3.34293 -3.27485
        3.74601 4.48743 8.34383
        -3.59352 -2.09097 4.50521
        1.46907 2.37059 -0.376279
        1.6194 8.87376 2.54912
        4.00164 -2.01155 -0.643085
        -2.61511 4.88835 2.89288
        -4.15829 5.51359 -2.88788
        3.85602 -4.04713 1.39477
        1.32828 -0.314432 -0.102609
        -1.08561 2.58653 -0.0859414
        4.39673 3.86503 3.49002
        0.187233 -0.10266 -4.27491
        0.749607 -0.594345 -4.13454
        4.84025 3.69708 4.14044
        2.93313 -2.95607 -2.74556
        2.64572 -2.24445 -4.96332
        -0.321124 2.36201 3.69887
        7.35615 0.212357 4.89212
        3.15072 -0.323401 1.86329
        0.816537 1.77627 5.53857
        2.40514 0.871778 -1.83983
        -1.66888 -1.30558 -3.46593
        -0.689231 -4.97361 0.201623
        -1.32892 -5.38048 -0.053947
        4.30059 -0.380665 -3.14011
        0.0535614 2.80562 1.36815
        1.92251 -0.415596 0.146017
        1.73357 -0.14338 -4.80032
        -4.00495 0.155909 -2.25261
        -1.09908 2.1754 2.59331
        1.16607 -0.884156 -3.35584
        0.768802 -2.27085 -0.124433
        4.04324 -4.94126 -5.48183
        5.14296 -0.322824 -3.84147
        0.237587 -2.76779 2.83374
        2.0808 4.16567 6.50501
        5.36094 3.01656 -6.71885
        5.58247 3.6241 -1.66917
        1.61333 4.14567 -0.052637
        0.171386 -0.0672596 -0.043029
        -0.127817 1.73089 1.67957
        2.76467 -4.7606 4.93027
        -3.02332 -2.63009 0.872216
        2.33778 -10.2515 -0.460827
        3.22676 -1.74342 6.85737
        3.3789 2.72273 3.03507
        4.36186 -2.92131 1.02737
        2.78386 0.384176 0.945057
        1.27934 -0.634567 -4.47584
        2.74585 -7.20059 1.49489
        1.99314 2.64032 -1.13901
        3.42518 -1.20484 3.77879
        0.3765 -2.13749 6.33726
        -4.94674 -0.441112 -4.71603
        1.19052 -0.48379 1.09975
        -2.32374 4.08536 -3.52878
        -0.34883 0.853645 9.161
        -0.124076 3.87748 -1.38602
        2.23298 1.50778 0.675587
        5.16349 0.249248 4.43842
        9.05288 4.20226 -1.05977
        2.88672 -0.998105 -0.314052
        3.64715 -6.67018 -0.461016
        3.15802 -2.12516 -1.10613
        -1.90517 0.514253 5.29792
        0.195893 -4.14401 -0.0562438
        8.77315 1.22237 1.56414
        0.631744 0.764114 4.37025
        5.38625 4.05831 2.66638
        3.0067 2.19359 -1.67858
        -1.99097 -2.34648 -3.36489
        2.52373 2.52114 4.15706
        -5.03766 5.59783 -3.92951
        2.54115 -3.10888 2.55398
        -0.243605 0.289478 0.124518
        4.99625 -3.856 -0.894831
        -1.59303 -0.576312 -0.0643013
        -1.93898 -1.93263 0.14997
        6.04383 -0.703298 5.98322
        1.32204 -3.75539 0.270564
        -5.69965 1.5368 0.333302
        3.03665 3.37615 -3.51223
        2.42303 2.31085 0.93328
        -4.03476 -0.865708 -6.70863
        1.59387 -3.90556 2.41312
        4.86472 0.342336 2.60868
        3.87833 -1.83349 3.10969
        -0.547041 5.59487 0.150921
        4.71044 -3.79454 2.81122
        0.889331 1.16217 -0.518365
        6.748 -4.65357 3.96151
        4.18714 -5.72491 1.06973
        -3.79324 -5.38594 -2.07324
        1.94324 8.26975 0.489699
        -4.56824 4.47283 -1.10781
        7.46778 -3.34986 4.03551
        0.839513 1.47821 1.19361
        0.628376 0.597818 -0.686491
        1.17889 3.21293 1.49755
        -2.34474 -1.32208 -0.0738836
        2.23578 -1.33905 0.955894
        -2.09047 -0.848891 0.688602
        8.16612 -1.56367 -7.57222
        -4.08206 -4.91422 4.28128
        2.07232 1.81911 1.52638
        0.666224 0.626621 2.15035
        2.86981 2.60701 -0.499846
        -1.45888 1.86624 2.31371
        0.964001 -1.85841 -1.98011
        4.0317 -1.90233 3.65776
        -1.95697 1.55978 -1.25891
        1.42948 -5.38895 -6.05053
        -0.336187 -2.19714 -0.249927
        1.71602 1.32931 -6.27469
        -0.278242 1.65357 4.11689
        3.66263 -3.83065 5.69268
        6.18465 2.94696 -1.37861
        1.2862 2.36309 -1.62691
        -3.58534 6.51773 -3.41334
        6.9831 -0.0549508 1.31895
        -0.0740243 0.599257 -2.46245
        5.75788 -2.36467 -0.744644
        4.89422 -5.0125 2.50192
        5.08769 2.2601 0.226016
        2.80108 4.24091 8.95655
        8.32568 4.29354 2.39721
        -0.131971 4.74745 -2.16195
        2.7627 -3.43435 1.43305
        -1.46068 -0.0543134 4.37648
        -1.12484 -3.77507 -0.625551
        1.67041 -3.68979 -3.97952
        1.13915 -2.30986 -2.34105
        2.57999 4.74854 2.9012
        5.77106 1.12274 1.21521
        2.19757 2.79109 1.41844
        5.381 4.42889 -0.990852
        0.510558 3.26814 -2.65164
        1.85317 -2.52048 0.424667
        -3.03587 -2.8893 3.11299
        -2.65729 0.589153 -2.7675
        2.6084 1.50322 2.83046
        -0.600336 1.29929 -3.00721
        2.11474 2.42564 -0.886
        3.72872 0.073478 1.60598
        -2.48036 2.36868 0.00627118
        2.30092 0.996355 1.03896
        7.05309 -2.52215 1.04622
        -1.13637 -2.36502 -1.1004
        3.36962 -3.18841 2.41807
        -3.20515 0.396839 -1.87222
        0.0868482 -3.55892 5.59361
        4.74783 0.0508919 -0.812444
        2.52176 3.30094 3.29879
        2.45836 3.61524 5.2022
        0.988785 -2.05391 0.101682
        3.7236 2.7425 2.32331
        4.54473 1.34578 0.121063
        1.28532 3.31062 -5.5915
        1.35331 -3.01528 0.0197876
        1.01054 0.683276 -6.01617
        -2.22847 3.40235 1.90921
        -2.50064 1.90684 1.72525
        4.54812 -0.685211 2.45534
        1.32816 2.42294 3.21688
        0.326875 -4.37241 1.97943
        0.145031 6.52826 4.36925
        0.883049 -0.5973 -2.38258
        2.28793 1.90371 0.143885
        5.95699 5.06999 0.589276
        8.38951 4.76958 -2.41692
        -4.54793 0.0807266 1.18237
        1.96581 1.33079 2.10753
        -2.64931 1.33774 -5.75182
        2.51428 3.21555 2.44595
        5.49548 -3.87477 -1.49725
        -6.18662 -0.418745 1.76468
        4.51476 1.95463 -3.39678
        6.37084 2.07765 1.56376
        5.69468 -3.86256 3.90241
        -1.70865 -1.88472 1.60437
        1.43922 2.32543 4.49566
        3.33601 5.26985 5.49222
        2.27629 1.91058 -3.5261
        6.31754 3.14437 -1.62639
        -4.40705 0.07343 -1.29249
        1.33195 -6.32598 2.85294
        -2.28842 2.07753 3.02806
        5.20748 0.515724 -3.50607
        1.5705 1.08576 -4.52987
        0.590547 -5.30484 1.66446
        7.76981 1.24124 2.34602
        2.48851 1.12584 -3.50228
        -5.05569 1.28136 6.38503
        2.43897 3.04283 1.68439
        0.145448 1.064 2.927
        0.642795 -4.866 2.9644
        -0.15183 6.64134 0.942415
        5.34158 -5.00199 -4.3784
        1.5585 -1.95825 2.69251
        3.19747 -5.71555 0.738985
        -0.155844 -3.03675 -2.13714
        -0.0174895 4.84843 -0.413076
        -2.34795 1.07965 3.00466
        3.11125 0.685616 1.65892
        3.17734 4.26304 -2.06445
        3.29573 0.00988151 3.2819
        -2.51744 2.18756 -0.179389
        -0.260803 0.967353 -1.2773
        1.99356 0.348973 -0.846465
        -3.94407 1.64748 0.977486
        8.51578 4.9378 3.68864
        -0.793503 -0.479641 5.24854
        1.27507 -1.69749 0.160359
        -0.396091 0.218716 0.802383
        -2.01486 -2.15775 -0.582685
        6.25071 1.03817 -0.666591
        4.05479 -3.03907 2.24962
        -1.05165 -1.54867 2.76848
        3.74567 -0.362009 -0.788345
        -0.099768 -1.04758 3.02328
        2.71793 -3.38557 3.38856
        4.93859 -5.26822 0.529374
        1.38279 2.51411 -1.91732
        3.77001 -4.64043 -0.116712
        0.17806 -1.83877 2.81151
        -0.293141 0.837286 0.646629
        1.30545 -3.60705 -1.94826
        -1.20591 2.33288 5.61604
        2.92457 4.69356 -1.70914
        7.18646 1.44512 2.98369
        5.95151 1.59356 -2.4881
        1.79127 1.55694 -8.18592
        -1.69391 -0.493583 -1.19579
        4.76663 -0.577156 1.52973
        -0.600641 1.70321 -1.91113
        -3.13353 3.61453 -2.52738
        1.27375 -5.02648 4.09206
        -2.03158 -5.74723 4.38653
        2.79669 -1.70361 -6.24831
        0.0165747 -4.67494 -4.77838
        -3.41599 -2.1838 2.72127
        0.367283 2.48376 -0.358969
        1.78205 0.0821325 2.66786
        -0.0509357 -2.46272 -0.247972
        -1.96687 0.730921 3.50191
        -1.17602 -1.17879 0.983168
        5.45358 -1.38557 -0.617873
        4.7321 2.62057 3.36188
        -0.975249 1.66661 2.35927
        0.410929 0.970771 0.733393
        -0.195021 0.347657 -0.355563
        1.51021 1.26962 -1.11843
        -2.89785 -0.995412 1.75502
        -0.812047 2.39715 1.48945
        -2.29891 -3.70837 -9.81596
        5.72752 2.83816 1.36129
        2.8624 1.6832 -2.23128
        4.31649 -3.69952 0.658776
        1.591 3.03544 1.40556
        -5.66127 1.55601 1.40297
        2.05533 -2.68733 -2.17658
        -3.6624 1.84425 0.354261
        -0.411883 -3.39734 1.69668
        2.27536 3.92467 -8.44255
        2.86632 0.844853 1.30173
        -5.16446 2.5114 -1.88742
        -2.80312 -0.655878 1.39937
        8.91042 3.2338 -1.16262
        1.13988 4.50595 -4.22158
        -1.77697 3.38158 6.02394
        -1.35019 -2.4084 2.86737
        5.96027 1.82355 1.05186
        -9.55307 -5.50605 -2.5854
        -0.696076 2.81277 2.84043
        4.05598 -3.67993 5.30452
        5.58608 -0.268123 -3.36974
        -2.15949 -1.06058 0.323308
        2.24477 0.440448 -2.26116
        0.294083 0.0128375 0.317851
        2.64947 0.452673 -3.26657
        1.25674 -4.57524 5.92103
        -1.72019 -3.89655 9.19009
        3.20868 0.576141 3.62572
        1.5321 -2.55618 4.00501
        -1.37835 2.1656 -4.04312
        -3.75798 0.503616 0.677053
        3.97998 -2.14234 -1.91687
        -3.529 3.55801 2.58319
        -1.41676 2.48574 4.27673
        2.85888 -0.847004 0.3483
        -2.31154 -0.531694 -1.99461
        1.45331 -0.28807 -1.13356
        5.63847 -3.90835 -0.782363
        0.522884 -0.189653 -3.91036
        6.73969 -7.72141 1.40462
        -3.9112 -2.36292 -2.22962
        -3.85941 -1.14492 3.5507
        -3.14662 -2.56544 -3.84064
        5.41033 3.77185 7.75324
        2.6352 -3.23512 1.96691
        3.25001 -1.74594 1.64556
        0.42376 1.31243 0.959549
        4.99879 0.304949 1.27796
        -1.37691 0.05305 3.39415
        1.62674 -5.49261 1.7216
        1.04756 3.43946 -0.179191
        1.12903 -3.22787 -3.94011
        -0.981523 4.45207 -3.39529
        1.40216 -0.673241 4.798
        3.90185 -3.09465 3.83757
        1.35034 2.26737 2.72306
        6.46327 -2.57514 0.603348
        -4.34082 0.168563 -8.74568e-05
        7.49277 -0.731471 -0.659302
        -4.64904 -2.80825 1.36636
        3.51334 3.92524 -1.01581
        2.66247 -1.17825 -4.75844
        4.99442 3.05852 4.36006
        -1.52645 1.92508 -1.08451
        -0.430198 7.0737 -4.6374
        2.60679 -2.52714 -1.29414
        -1.88764 1.44978 2.05831
        -1.18493 -0.0471211 -4.67809
        -2.54997 1.9612 -2.47986
        6.04812 0.879478 2.24504
        -1.95619 -0.911292 4.00952
        0.552021 -5.16801 -3.1232
        3.60842 2.46018 -1.87724
        2.73992 -2.24213 -2.8128
        -1.08359 -2.61215 -4.12387
        2.07681 1.36042 -2.25175
        -1.91164 -1.7187 -0.990272
        -0.414899 -3.05023 4.24789
        -1.94207 0.751784 -3.91824
        0.868997 2.73993 0.816008
        1.29159 2.72636 -0.833351
        2.50059 5.53277 0.76776
        3.72885 5.09037 -1.29944
        2.02583 -4.88408 2.65307
        -3.82182 5.36856 2.5962
        -3.14225 -1.55598 -0.252503
        1.18343 6.81797 -8.14623
        9.94606 1.84211 2.21944
        6.76575 1.03662 1.31843
        0.481253 -2.10978 -3.36395
        -0.0527808 -6.23724 -4.10191
        -2.63907 -1.97493 -2.96438
        -2.65851 -1.05138 3.6724
        -0.460474 -2.93186 0.638253
        -0.974031 3.14643 -0.896751
        3.9577 0.85791 -3.00443
        -1.30514 3.70746 -0.24944
        3.85705 -7.31654 5.97043
        -0.247998 -7.09391 -0.953578
        -1.68577 2.14176 -1.7936
        -2.59177 -4.7977 1.0472
        -0.382547 3.04015 -1.91007
        -3.79991 1.71215 1.83218
        -5.22685 -3.26628 0.945755
        -1.00427 -0.573424 5.15375
        -3.66317 2.90685 0.302128
        0.63859 -4.54707 -2.60853
        0.899031 -3.69701 2.07047
        -1.44064 -3.38612 0.955776
        3.89462 1.07995 1.35626
        -1.62532 2.30027 0.870524
        -3.01808 -0.638017 -1.03715
        -2.31747 3.06182 -2.38515
        -0.329019 -0.62193 7.78721
        -0.840862 0.245443 -4.74159
        -6.2512 4.04755 2.00997
        4.90451 1.21739 0.168735
        -1.30231 -1.61174 -0.936797
        1.54233 -1.06047 0.00258016
        -0.452632 2.08553 -1.64865
        -4.61191 2.1289 -5.07422
        -0.102348 0.1395 0.119391
        -2.79157 -1.86294 -3.98052
        -1.39389 -1.59097 -1.3679
        -1.63615 0.542462 7.70198
        -2.07717 3.9683 -3.35071
        2.29468 1.18939 -1.09845
        3.31441 0.459108 4.05351
        -8.27599 -1.28459 -0.397115
        -2.57724 -5.18784 -0.895328
        0.241266 -0.0451591 -2.82987
        5.03109 0.15924 3.66565
        -0.576069 -2.38611 -1.69221
        -1.3839 4.02009 7.4397
        2.48605 3.68942 2.62011
        -2.45386 1.33238 -2.43643
        -2.71358 -3.24084 -0.154397
        -2.84347 -5.91516 -3.62397
        1.49478 1.94133 2.86754
        -3.88425 0.690578 -0.618282
        -0.0784251 2.45583 8.80736
        0.860452 3.30249 6.42104
        1.62628 3.09822 -0.196451
        0.911899 2.2791 -3.66415
        -2.31211 -2.5456 1.09084
        1.89678 0.0117808 -0.919016
        4.12098 0.691256 3.58535
        4.76117 -3.49553 1.63532
        -2.15229 -1.98875 1.37708
        1.88021 4.6556 -3.88223
        1.40325 -3.41153 -1.59709
        -2.85516 1.37913 0.547911
        -3.24945 -0.863874 -2.90813
        -5.30962 -3.89831 -0.568825
        -3.26711 1.75265 -0.696364
        3.24051 -2.12587 -3.40432
        -1.81166 -0.551715 -0.208963
        -4.86708 7.87392 -3.93361
        -4.18445 4.03504 -0.708131
        -5.7503 -0.769244 -2.18374
        -0.500659 3.74367 3.16784
        -0.866879 5.71747 0.90238
        -1.34913 -5.90757 -4.39329
        -1.01731 -4.84982 -2.77117
        3.40488 0.392755 -2.98137
        -2.00846 5.42041 -1.81038
        5.04002 -0.905592 -0.151488
        6.22703 2.02938 3.52672
        1.86411 -0.121279 5.61458
        2.31613 -3.37711 0.124936
        -4.06244 -1.39573 -3.11593
        -1.31938 -1.95172 2.49382
        2.54197 -0.616565 -1.40094
        -1.83693 -1.97878 1.26796
        0.695348 -3.66078 2.30288
        3.04623 -0.371284 0.46088
        -1.87245 -0.897587 -0.689761
        0.235588 2.2287 2.63462
        0.221661 -4.20746 -2.26749
        -4.14477 -1.52683 3.04325
        2.81009 0.477281 -0.713271
        -4.52921 0.498497 -0.644694
        -4.07088 2.33334 -0.676051
        3.39736 1.67574 -0.131813
        -1.15564 0.551085 1.56182
        -4.7037 -2.26835 -0.249158
        -2.8466 -2.42769 2.80148
        -2.72577 3.34678 1.6684
        0.110315 -1.02371 1.93386
        0.424199 2.66881 2.88003
        3.1351 2.74812 0.0782305
        -0.439014 -2.83181 1.74626
        -0.64259 1.972 1.33732
        -0.326757 -2.89072 0.873567
        3.37159 -0.689913 2.79685
        -1.11975 3.04679 -4.85534
        1.7271 -4.57824 0.599196
        -2.99285 1.78563 -3.75421
        1.28279 -5.30944 2.63614
        2.7204 3.27203 0.125266
        -3.83088 -4.11467 -0.756645
        3.11367 -3.95167 -1.5554
        3.44364 0.659318 -3.95861
        -7.0241 1.28483 -4.88328
        -0.912661 0.780119 3.36504
        -1.39541 3.39408 -0.621831
        -2.92945 -3.18649 1.29133
        -1.37932 -1.94077 -4.44363
        -4.97751 -5.3265 1.26696
        -2.96648 -0.0265124 -4.33704
        0.301476 1.39054 0.437223
        6.06877 -1.93446 -0.0506426
        -7.59125 3.31337 0.225807
        -1.27192 1.14432 -3.77108
        -3.08987 0.629882 0.757358
        2.99612 4.26322 -3.12057
        1.18645 2.55647 3.28763
        6.51538 -1.61382 -0.234151
        -1.09895 2.66164 -4.60264
        -1.90149 -0.146403 5.8412
        -1.34736 -0.218012 -0.759963
        -3.96322 -1.13327 2.20438
        -5.42592 3.39455 1.16428
        -4.34904 -0.388814 -0.767003
        -2.88093 0.0596586 3.41731
        3.34292 -0.354569 4.23059
        -3.59151 -0.0259432 -1.45966
        6.3686 -0.463187 1.1687
        -2.54386 0.672405 -3.39629
        -2.59458 -1.3997 0.964883
        -0.876259 -1.17176 -3.28761
        1.89188 3.52007 7.69802
        -0.541864 -5.65148 2.64114
        1.94116 -0.530116 7.01335
        -2.5526 0.563665 1.90975
        2.0428 -0.659449 1.70153
        -0.976099 0.522069 2.94341
        0.367148 -5.35159 3.61562
        1.7463 -8.09465 -4.35501
        -0.843877 -4.18232 -1.20717
        -0.333227 2.14705 -4.75902
        -0.922822 4.72235 2.87646
        2.21829 -1.49474 -0.0450779
        -2.47864 -4.13566 5.86462
        -0.802423 -7.95704 -0.0479714
        1.43967 2.2648 3.65284
        0.384466 -0.969869 0.432891
        -1.01603 -1.55289 6.82577
        -3.38822 1.43188 2.21241
        -0.637928 0.938339 2.90642
        0.205237 0.727605 5.6769
        0.417607 3.64071 -0.311758
        -5.72518 1.29828 2.23196
        0.370939 -0.849654 5.86679
        -6.42633 -3.58742 2.18848
        1.16996 -0.550973 -5.03718
        -3.48119 0.644393 -1.59778
        0.97634 4.76734 -2.26186
        1.08165 -1.08941 -1.60934
        -1.59088 2.03738 0.750576
        4.36907 4.95957 2.55265
        -2.71328 0.504501 -0.821333
        0.706942 1.03666 -5.35549
        -5.55099 2.8462 1.63087
        -2.68391 1.70675 0.669264
        -0.407651 -0.0889607 2.7934
        -4.14188 -0.851362 0.990343
        -0.485704 1.10169 -1.95877
        -0.452595 -2.80269 -2.34649
        3.92778 -1.80864 2.2825
        0.260812 -3.72818 -3.95289
        1.13998 -0.554812 -2.71201
        -5.60602 4.99155 3.12645
        0.846907 1.98297 -1.29744
        -3.02671 0.815709 1.12235
        -4.87967 -3.50103 0.476039
        0.0404076 -2.25492 2.37394
        0.314406 -1.81108 0.648805
        2.71105 1.25957 -4.2346
        2.8549 3.7673 -0.0623294
        -1.91936 0.348322 0.866574
        -1.79261 1.47891 -4.27988
        0.518037 -0.159033 1.90269
        -2.25088 -3.51184 -0.406594
        1.38142 -0.107711 2.57184
        -5.69606 -0.445371 -0.799938
        -0.397697 -1.68175 -7.08234
        -2.97672 2.71916 1.70581
        2.7096 -0.937903 -1.80413
        -5.36907 4.77509 -1.24366
        -0.740047 -6.71975 -2.39214
        0.621363 -0.306038 -3.76999
        -1.81658 3.15967 3.3385
        -0.809403 -5.50086 2.22354
        -1.08557 4.50572 -1.26872
        2.9545 -2.50802 1.66595
        6.78399 -4.35849 -2.04252
        -4.89645 -0.541487 0.431195
        1.63254 1.17936 2.39474
        0.554021 3.83186 -4.07179
        -4.15243 0.474838 3.75581
        -0.395936 0.630622 2.14487
        -5.30376 4.65484 0.189867
        2.13026 6.71867 3.33156
        -2.70487 -5.07435 3.54361
        3.48024 1.24191 0.374982
        -2.87475 -1.47622 1.00884
        -3.4466 1.27784 0.568076
        -0.190532 -0.621456 -0.209836
        0.480094 0.425492 3.14048
        -1.03239 -5.25858 -1.24001
        -4.32594 5.1317 -2.3571
        4.81267 -1.36499 5.89222
        -0.741863 1.78824 2.95436
        1.39953 -1.98573 -3.24567
        -3.61002 1.30069 0.591031
        -2.19673 4.25446 2.71077
        2.25043 -5.1025 1.20847
        3.66942 -1.07002 0.148776
        4.74882 -2.84841 1.23631
        0.610654 1.06584 2.68816
        3.3354 3.87705 5.22521
        0.357592 -5.24729 0.563999
        -3.04705 0.76917 -6.38001
        -1.06261 1.71461 0.669495
        -2.60903 3.42959 -2.2947
        -2.51114 4.83004 -1.70229
        3.1749 -0.0800383 -0.256015
        3.15123 -1.61427 -3.10674
        0.524983 1.29914 -3.896
        -1.68688 0.404776 -4.97458
        -5.34631 3.17192 -0.0297171
        -6.26736 -2.36252 -0.250875
        -2.78529 0.871132 0.362372
        -0.711274 1.95983 -1.53305
        -0.102314 5.96111 -3.87107
        1.97006 -4.53284 -1.60983
        -6.21026 3.39538 -6.66989
        -0.565934 4.37032 -0.0541683
        -2.77571 2.82465 -1.02634
        -4.51675 -2.47449 -0.966208
        -4.00143 -5.88693 3.53236
        -4.22858 -0.0414758 -6.30902
        5.68448 3.58587 -1.74767
        -1.6017 -1.42912 0.33584
        -4.46538 -1.47069 1.31371
        -1.6981 -0.376535 -2.01703
        -4.88104 7.08052 -1.11859
        -3.33042 0.863455 -1.27649
        -4.15296 0.332563 2.21827
        -0.391537 -3.98733 -0.348335
        -2.98351 5.42355 -2.53258
        1.01946 0.176004 0.913385
        0.0492579 -0.477914 -3.37493
        -2.64816 -1.06316 2.26168
        -1.17253 -1.97984 -5.79831
        -3.99614 -3.31251 3.19373
        -0.428494 -2.0448 5.5184
        -3.33665 0.287448 1.85894
        1.87455 -1.35939 2.63944
        -1.01 -1.33396 3.28913
        2.60527 -6.07091 3.08188
        -3.87179 4.54884 -3.30536
        2.31071 3.80701 1.22078
        -3.84869 -3.44438 -4.05545
        -0.678143 -3.85625 -1.89724
        -6.82747 0.0331502 -5.69052
        0.088031 1.14907 -0.260694
        1.14776 -2.18225 -1.57713
        -1.55312 0.114164 2.09487
        -1.8039 1.51395 -0.642667
        3.28043 -1.32298 2.35718
        -0.916826 -1.09243 -2.05908
        -3.18283 -1.5509 1.7892
        -0.0660846 -0.680396 3.55287
        1.34494 0.410771 -1.47444
        2.04178 -0.951361 -5.08085
        -5.74142 -0.632601 -4.90316
        -0.783814 0.364695 -0.850486
        -6.8936 -0.530186 3.49756
        -2.7743 3.69878 4.09389
        0.460501 -0.544324 -2.10987
        -3.17787 4.29125 0.220843
        -0.479643 -2.96975 -0.74524
        -0.692246 -3.07882 -0.79896
        -5.94849 2.57585 -0.9648
        -4.65317 3.9571 0.14249
        -6.54065 -2.3198 -4.36061
        -0.0559704 -2.91431 9.04529
        -2.10332 -0.775692 0.89444
        -1.86026 2.61809 2.7513
        0.647685 0.923338 1.14745
        -6.68496 -2.22386 -2.11266
        -2.90125 3.95363 -2.42573
        -0.522978 -4.53833 2.48118
        -2.8698 0.895264 2.24616
        -4.18619 2.31214 6.53921
        -0.993421 0.81538 3.82779
        -3.12727 3.05441 0.524817
        -7.26305 -1.34831 -1.27082
        -3.54516 0.651017 -2.22861
        -0.917385 3.44016 2.43739
        1.09633 0.831366 3.90137
        -0.600061 3.12518 -0.308264
        1.27188 -4.56332 -2.39104
        2.04482 3.27577 6.00824
        -3.78606 -3.38536 -0.763097
        0.986442 0.925537 1.86561
        -7.19718 2.56885 -0.616736
        -0.307332 -0.080059 -4.88883
        -2.69036 0.389965 -3.09086
        -4.21753 0.612968 -2.04502
        -0.699465 -0.855968 -4.99512
        -1.65963 -4.53336 -1.38458
        2.10124 -0.376366 -6.2231
        -1.34123 -1.14541 -3.74154
        -3.01506 -1.20184 -1.01163
        7.03278 0.862884 -1.74814
        -1.46444 -3.16312 -0.803604
        -3.20009 -0.666641 0.31952
        0.53843 2.66031 1.36848
        -6.38765 -1.757 1.01237
        -2.08985 -0.762539 -3.11642
        -1.84284 -0.788822 3.13935
        -0.450364 2.41041 2.40091
        3.64278 1.41269 -0.206506
        -0.881724 -0.71048 0.711975
        -6.04791 0.931016 2.41104
        -1.82455 2.03051 -4.02579
        0.327897 1.52542 -2.39649
        0.713458 3.02925 -2.76024
        4.13237 -0.393704 2.01204
        0.705369 -1.70849 -5.06389
        -5.35691 4.47483 -2.90749
        -2.31874 2.65355 -1.47934
        -1.82979 -4.34149 -4.3853
        0.550522 -4.0373 -1.8427
        -2.36791 -1.70536 2.21783
        -2.70761 -0.865687 2.24017
        1.36448 -4.79611 0.176165
        1.63694 -4.86807 0.756956
        -3.19132 4.73102 1.23557
        2.63473 -0.453978 -4.01504
        3.67081 2.70659 -2.40092
        2.20247 3.56215 -1.33015
        2.69343 -1.79494 0.212027
        -3.68148 -1.01 -3.05694
        0.696841 3.82723 -2.17944
        -4.38893 -1.10631 0.46197
        -0.221617 0.712222 -2.11809
        0.588895 -3.25305 -4.83299
        0.0518366 1.3625 1.18134
        -5.46364 2.00652 -3.64638
        -3.38919 5.24025 -5.82333
        0.674683 -2.38283 1.46702
        -0.322754 -6.47931 2.1494
        -4.13794 -0.507133 -1.10277
        4.76702 2.74644 1.84254
        -3.96231 -0.406939 3.46336
        2.28102 -2.90297 0.334152
        -3.38613 -0.889641 0.599287
        -1.24455 -2.58377 2.59699
        7.42151 2.52796 2.17525
        -2.85387 1.93844 -0.222547
        0.663223 -5.33261 -4.70158
        2.39703 1.76565 -1.19585
        -4.99603 -1.09261 -2.87252
        -6.55374 -0.416715 -4.95429
        -0.675217 -2.65231 5.41831
        -1.02633 -3.49226 -2.09573
        -2.97999 -1.71705 3.47367
        -1.46135 -0.0886474 3.27859
        0.82428 -1.43199 -2.3076
        -1.06022 0.941544 -2.05383
        -3.89106 -2.80433 2.63361
        -1.48989 4.54085 0.232593
        -4.29672 -0.471235 1.63122
        1.56223 2.1648 2.28292
        -2.23253 -1.95378 3.43304
        -5.15377 0.0831374 3.83035
        -1.32163 -0.752581 -0.41254
        -1.17356 1.39385 -0.977797
        -0.00205175 2.43871 -3.44325
        -0.497141 2.0491 -1.87136
        -1.71867 1.0004 -2.51619
        -2.15781 -4.67035 -1.93347
        -7.55853 -4.575 -0.943741
        0.830172 -1.59555 2.70086
        2.34265 -5.89477 1.04108
        -0.933541 4.41672 -0.416438
        0.868866 -0.155059 -1.93278
        2.24683 1.90512 -3.76448
        -0.0399376 -1.92405 0.779462
        -4.68241 0.172882 -0.266599
        0.354796 -1.99334 -2.74834
        -1.38583 0.00729552 -4.66597
        -3.69166 -1.58204 3.35424
        3.47105 -0.904999 -2.46654
        0.939185 -0.466239 0.975854