<?xml version="1.0" encoding="UTF-8" standalone="no" ?>
<VTKFile byte_order="LittleEndian" type="UnstructuredGrid" version="0.1">
  <UnstructuredGrid>
    <Piece NumberOfCells="0" NumberOfPoints="15094">
      <PointData>
        <DataArray Name="velocities" NumberOfComponents="3" format="ascii" type="Float32">
        -2.39144 -0.561232 -0.78424
        0.498055 -4.33572 0.758555
        0.328461 -3.75738 1.11229
        -1.82227 -1.68029 0.266458
        0.587723 0.459037 -1.19249
        0.155852 0.237078 -0.79181
        -0.957284 0.466971 -4.57901
        0.944017 -1.39194 -1.53797
        -2.17798 0.456438 -1.91995
        0.279104 -2.46053 -0.662816
        0.580345 -2.34228 -0.0421316
        -0.325547 -0.119722 -1.82284
        -3.08947 -0.397838 -2.46017
        0.51197 -4.80583 -1.39653
        0.276705 -4.43164 -1.52282
        -3.56656 1.17655 -2.08957
        -0.0329448 1.12385 -1.25592
        0.343094 0.265559 -0.740102
        -3.53104 -2.50881 -1.34441
        0.297468 -0.141521 -2.04538
        0.51034 0.357196 -1.45303
        -2.40547 3.32973 0.544254
        0.448504 1.117 4.13369
        -3.15723 0.485596 -0.519735
        -2.65179 1.554 1.63184
        0.901932 0.469727 4.10555
        0.314896 0.512915 2.3102
        -0.576987 -0.498741 -3.10099
        0.115959 -1.61213 -1.72247
        0.205905 0.178615 -1.14411
        -0.219878 0.493314 -5.60887
        -0.589331 0.434269 -4.24505
        -0.845035 0.030152 -3.32255
        0.20069 0.173079 -2.00396
        -0.422114 -0.774885 -3.19758
        -1.28737 -0.523482 -3.30738
        -0.358157 -0.15969 -4.81387
        0.176118 -0.552475 -4.19355
        0.282655 -3.64108 1.16812
        0.129491 -3.5314 1.21272
        0.027261 -3.48571 1.22777
        0.205282 0.275095 -0.430514
        0.0775157 0.412629 -0.0358566
        0.0126569 0.419447 0.0927166
        0.231374 -0.667841 -2.3965
        0.0849938 -0.464869 -2.64397
        0.0129763 -0.374742 -2.7158
        0.0894944 -2.11523 -0.0945434
        0.0382203 -2.03137 -0.178483
        0.00674861 -2.02083 -0.209651
        0.257866 -4.43866 -1.65507
        0.13526 -4.30474 -1.66218
        0.0272328 -4.22585 -1.63089
        0.303325 0.39075 -0.860645
        0.164736 0.405828 -1.2692
        0.0373469 0.440563 -1.52016
        0.318051 0.249038 -1.32669
        0.154901 0.326613 -0.942167
        0.0383121 0.360343 -0.708908
        0.194247 1.5955 3.62601
        0.0696953 1.64489 3.30669
        0.0126976 1.67065 3.19353
        0.206119 0.651798 1.9719
        0.111688 0.610373 1.33246
        0.0294554 0.595211 0.963081
        0.132317 -1.24127 -1.47902
        0.0618255 -1.19124 -1.32298
        0.0107516 -1.19663 -1.27613
        0.179336 0.249804 -0.873216
        0.119073 0.334501 -0.509741
        0.0328474 0.29723 -0.291779
        0.187756 0.459005 -0.172285
        0.0942299 0.449113 0.13944
        0.0173607 0.402182 0.23879
        0.177421 0.291637 -0.465262
        0.328071 0.258117 -0.772255
        0.294901 -0.822208 -2.06241
        0.0716772 -1.46669 -1.67111
        0.114514 -2.23889 -0.0484269
        0.350939 1.44275 3.8535
        0.406691 0.157904 -2.12426
        0.35817 0.174972 -2.4259
        0.0976906 0.285124 -2.71206
        0.0334957 -0.531174 -3.07795
        0.186166 -0.629175 -2.9458
        0.392315 -0.855553 -2.71562
        0.312993 -0.517423 -4.1789
        0.241756 -0.297329 -4.27045
        0.0589123 -0.163886 -4.3771
        0.264244 -0.979877 -2.68787
        0.00307389 -3.47783 1.23018
        0.000178257 -3.47722 1.23038
        1.12732e-06 -3.4772 1.23039
        -4.57547e-07 -3.4772 1.23039
        0.000883541 0.414491 0.10887
        -1.10214e-06 0.413759 0.109607
        -5.14299e-06 0.413727 0.109574
        0.000882589 -0.360246 -2.72572
        -3.96613e-06 -0.359191 -2.72641
        -4.4604e-06 -0.35918 -2.72642
        0.000608468 -2.02155 -0.214367
        2.38103e-05 -2.0218 -0.214741
        -4.92118e-07 -2.02182 -0.214754
        0.00258423 -4.21193 -1.62317
        9.11946e-05 -4.21089 -1.6225
        -3.74219e-06 -4.21088 -1.6225
        -5.55956e-07 -4.21088 -1.6225
        0.00371493 0.459227 -1.5719
        0.000126462 0.461954 -1.57699
        -1.0901e-05 0.462129 -1.57721
        -1.3999e-06 0.462129 -1.57721
        0.0042351 0.352577 -0.661389
        0.000165731 0.35037 -0.657414
        -1.21853e-05 0.350188 -0.657361
        -1.72249e-06 0.350187 -0.657379
        0.00114333 1.67657 3.17868
        3.1852e-05 1.67711 3.17785
        -3.70285e-06 1.67712 3.17785
        0.00358554 0.60061 0.891203
        0.000171571 0.601789 0.885381
        -7.94871e-06 0.601858 0.885278
        -1.54939e-06 0.601854 0.885299
        0.00098489 -1.19904 -1.27005
        4.38186e-05 -1.19939 -1.26965
        -8.41499e-09 -1.19942 -1.26965
        0.00416762 0.27868 -0.246564
        0.00026176 0.276 -0.24242
        1.41426e-06 0.275822 -0.24228
        -8.17023e-07 0.275821 -0.242287
        0.00156986 0.391791 0.250781
        5.73896e-05 0.390807 0.251319
        -2.28292e-06 0.390771 0.251297
        0.0117952 0.320317 -2.794
        0.000704216 0.324842 -2.80449
        5.67874e-06 0.325135 -2.80519
        -1.90681e-06 0.32514 -2.8052
        -2.68375e-06 -0.513207 -3.10631
        0.00012235 -0.513259 -3.10619
        0.00304304 -0.514675 -3.10368
        0.00671529 -0.136433 -4.40689
        0.000390003 -0.133747 -4.41057
        4.1745e-06 -0.133627 -4.4108
        -8.19306e-07 -0.133628 -4.4108
        -2.46714e-08 -3.4772 1.23039
        1.20822e-10 -3.4772 1.23039
        5.25312e-11 -3.4772 1.23039
        1.35282e-09 0.601854 0.885301
        2.10874e-10 0.601854 0.885301
        -3.48236e-07 0.413729 0.109568
        -1.66352e-09 0.413729 0.109567
        8.36875e-10 0.413729 0.109567
        3.13052e-11 0.413729 0.109567
        -3.05085e-07 -0.359184 -2.72642
        -3.1551e-09 -0.359184 -2.72642
        5.82359e-10 -0.359184 -2.72642
        2.46537e-11 -0.359184 -2.72642
        -7.75466e-08 -2.02182 -0.214754
        -1.05834e-09 -2.02182 -0.214754
        1.75275e-10 -2.02182 -0.214754
        7.48995e-12 -2.02182 -0.214754
        -1.54471e-08 -4.21088 -1.6225
        9.43335e-10 -4.21088 -1.6225
        6.8681e-11 -4.21088 -1.6225
        -4.41679e-08 0.462128 -1.5772
        1.82539e-09 0.462128 -1.5772
        1.61765e-10 0.462128 -1.5772
        -6.60726e-08 0.350188 -0.657381
        1.61128e-09 0.350188 -0.657381
        2.0371e-10 0.350188 -0.657381
        -3.81859e-07 1.67712 3.17786
        -8.85002e-09 1.67712 3.17786
        5.61618e-10 1.67712 3.17786
        3.51334e-11 1.67712 3.17786
        -6.66381e-08 0.601854 0.885301
        -8.21203e-08 -1.19942 -1.26965
        -2.50992e-10 -1.19942 -1.26965
        2.88578e-10 -1.19942 -1.26965
        1.06663e-11 -1.19942 -1.26965
        -4.48316e-08 0.275821 -0.242288
        4.03555e-10 0.275821 -0.242288
        1.04677e-10 0.275821 -0.242288
        -2.95135e-07 0.390772 0.251293
        -4.3205e-09 0.390773 0.251293
        6.43057e-10 0.390773 0.251293
        2.9277e-11 0.390773 0.251293
        -9.19703e-08 0.325139 -2.8052
        1.82148e-09 0.325139 -2.8052
        2.68773e-10 0.325139 -2.8052
        3.40406e-11 -0.513209 -3.10631
        6.08011e-10 -0.513209 -3.10631
        -1.13696e-08 -0.513209 -3.10631
        -4.58364e-07 -0.513208 -3.10631
        -3.57547e-08 -0.133629 -4.4108
        1.08805e-09 -0.133629 -4.4108
        1.15738e-10 -0.133629 -4.4108
        -2.11078e-13 -4.21088 -1.6225
        -2.10868e-13 -4.21088 -1.6225
        2.58964e-12 0.350188 -0.657381
        -4.96737e-13 0.350188 -0.657381
        -4.16496e-13 0.350188 -0.657381
        -4.20019e-13 0.350188 -0.657381
        9.40053e-13 -3.4772 1.23039
        3.69437e-12 0.601854 0.885301
        -1.78427e-13 -3.4772 1.23039
        -2.95e-14 -4.21088 -1.6225
        -1.86118e-13 0.413729 0.109567
        -8.61311e-14 -0.359184 -2.72642
        -1.4795e-13 -3.4772 1.23039
        7.1702e-14 -2.02182 -0.214754
        -4.12416e-13 0.601854 0.885301
        3.27768e-13 -0.359184 -2.72642
        -2.47938e-13 -4.21088 -1.6225
        4.03581e-13 0.413729 0.109567
        2.71769e-13 -2.02182 -0.214754
        -1.45453e-13 -3.4772 1.23039
        -2.66701e-13 0.601854 0.885301
        2.783e-13 -2.02182 -0.214754
        3.41815e-13 -0.359184 -2.72642
        4.04842e-13 0.413729 0.109567
        -2.63305e-13 0.601854 0.885301
        1.79089e-13 0.462128 -1.5772
        -4.43586e-13 0.462128 -1.5772
        -3.18127e-13 0.462128 -1.5772
        -3.36491e-13 0.462128 -1.5772
        2.56019e-13 1.67712 3.17786
        2.31594e-13 1.67712 3.17786
        2.45528e-13 1.67712 3.17786
        -7.00415e-14 -1.19942 -1.26965
        1.41421e-13 -1.19942 -1.26965
        1.4615e-13 -1.19942 -1.26965
        6.40047e-13 0.275821 -0.242288
        -3.21297e-13 0.275821 -0.242288
        -2.43371e-13 0.275821 -0.242288
        -2.40936e-13 0.275821 -0.242288
        6.65377e-14 0.390773 0.251293
        2.25432e-13 0.390773 0.251293
        2.4169e-13 0.390773 0.251293
        3.73443e-12 0.325139 -2.8052
        -2.09735e-13 0.325139 -2.8052
        -1.58797e-13 0.325139 -2.8052
        -1.58033e-13 0.325139 -2.8052
        1.7324e-13 -0.513209 -3.10631
        1.57351e-13 -0.513209 -3.10631
        1.00343e-12 -0.133629 -4.4108
        -1.53906e-13 -0.133629 -4.4108
        -1.11779e-13 -0.133629 -4.4108
        -1.09366e-13 -0.133629 -4.4108
        -1.71315e-13 -0.513209 -3.10631
        -2.09954e-13 -4.21088 -1.6225
        -2.11926e-13 -4.21088 -1.6225
        -2.10817e-13 -4.21088 -1.6225
        -4.23658e-13 0.350188 -0.657381
        -4.16717e-13 0.350188 -0.657381
        -4.18457e-13 0.350188 -0.657381
        2.77915e-13 -2.02182 -0.214754
        2.77601e-13 -2.02182 -0.214754
        -1.45542e-13 -3.4772 1.23039
        2.78145e-13 -2.02182 -0.214754
        4.30848e-13 0.413729 0.109567
        3.28882e-13 -0.359184 -2.72642
        4.10756e-13 0.413729 0.109567
        -2.60446e-13 0.601854 0.885301
        -1.45567e-13 -3.4772 1.23039
        -2.66045e-13 0.601854 0.885301
        3.2123e-13 -0.359184 -2.72642
        -2.63471e-13 0.601854 0.885301
        4.11226e-13 0.413729 0.109567
        -1.45431e-13 -3.4772 1.23039
        3.505e-13 -0.359184 -2.72642
        -3.54401e-13 0.462128 -1.5772
        -3.17308e-13 0.462128 -1.5772
        -3.42122e-13 0.462128 -1.5772
        2.45563e-13 1.67712 3.17786
        2.45424e-13 1.67712 3.17786
        2.44641e-13 1.67712 3.17786
        1.4173e-13 -1.19942 -1.26965
        1.42571e-13 -1.19942 -1.26965
        1.42551e-13 -1.19942 -1.26965
        -2.31765e-13 0.275821 -0.242288
        -2.38183e-13 0.275821 -0.242288
        -2.52364e-13 0.275821 -0.242288
        2.27882e-13 0.390773 0.251293
        2.33133e-13 0.390773 0.251293
        2.42103e-13 0.390773 0.251293
        -1.59037e-13 0.325139 -2.8052
        -1.57286e-13 0.325139 -2.8052
        -1.58736e-13 0.325139 -2.8052
        1.66982e-13 -0.513209 -3.10631
        1.71344e-13 -0.513209 -3.10631
        1.57949e-13 -0.513209 -3.10631
        -1.06441e-13 -0.133629 -4.4108
        -1.12697e-13 -0.133629 -4.4108
        -1.09289e-13 -0.133629 -4.4108
        -2.10309e-13 -4.21088 -1.6225
        -2.11449e-13 -4.21088 -1.6225
        -4.21381e-13 0.350188 -0.657381
        -2.11167e-13 -4.21088 -1.6225
        -4.2059e-13 0.350188 -0.657381
        -4.19829e-13 0.350188 -0.657381
        2.77379e-13 -2.02182 -0.214754
        2.77706e-13 -2.02182 -0.214754
        -2.60899e-13 0.601854 0.885301
        3.25815e-13 -0.359184 -2.72642
        2.77931e-13 -2.02182 -0.214754
        4.35224e-13 0.413729 0.109567
        -1.4482e-13 -3.4772 1.23039
        3.41752e-13 -0.359184 -2.72642
        2.78423e-13 -2.02182 -0.214754
        3.29638e-13 -0.359184 -2.72642
        3.33325e-13 -0.359184 -2.72642
        4.10536e-13 0.413729 0.109567
        -2.60534e-13 0.601854 0.885301
        -1.44616e-13 -3.4772 1.23039
        4.16051e-13 0.413729 0.109567
        -2.61885e-13 0.601854 0.885301
        4.20881e-13 0.413729 0.109567
        -1.45429e-13 -3.4772 1.23039
        -3.50651e-13 0.462128 -1.5772
        -3.39742e-13 0.462128 -1.5772
        -3.30223e-13 0.462128 -1.5772
        2.50813e-13 1.67712 3.17786
        2.42963e-13 1.67712 3.17786
        2.50543e-13 1.67712 3.17786
        2.46181e-13 1.67712 3.17786
        2.39895e-13 0.390773 0.251293
        1.41895e-13 -1.19942 -1.26965
        1.3865e-13 -1.19942 -1.26965
        1.42289e-13 -1.19942 -1.26965
        1.42485e-13 -1.19942 -1.26965
        -2.37579e-13 0.275821 -0.242288
        -2.43104e-13 0.275821 -0.242288
        -2.38968e-13 0.275821 -0.242288
        2.25509e-13 0.390773 0.251293
        2.40362e-13 0.390773 0.251293
        2.29227e-13 0.390773 0.251293
        -1.59263e-13 0.325139 -2.8052
        -1.58651e-13 0.325139 -2.8052
        -1.59389e-13 0.325139 -2.8052
        1.63956e-13 -0.513209 -3.10631
        1.65313e-13 -0.513209 -3.10631
        1.66207e-13 -0.513209 -3.10631
        1.56026e-13 -0.513209 -3.10631
        -1.06693e-13 -0.133629 -4.4108
        -1.09058e-13 -0.133629 -4.4108
        -1.09504e-13 -0.133629 -4.4108
        -2.12433e-13 -4.21088 -1.6225
        -2.09605e-13 -4.21088 -1.6225
        -2.12884e-13 -4.21088 -1.6225
        -4.15012e-13 0.350188 -0.657381
        -4.24376e-13 0.350188 -0.657381
        -4.24014e-13 0.350188 -0.657381
        -1.99092e-13 -4.21088 -1.6225
        -4.49113e-13 0.350188 -0.657381
        2.77384e-13 -2.02182 -0.214754
        3.35293e-13 -0.359184 -2.72642
        2.78003e-13 -2.02182 -0.214754
        3.41192e-13 -0.359184 -2.72642
        2.7682e-13 -2.02182 -0.214754
        3.53404e-13 -0.359184 -2.72642
        -2.68893e-13 0.601854 0.885301
        4.2061e-13 0.413729 0.109567
        -1.47091e-13 -3.4772 1.23039
        -2.62463e-13 0.601854 0.885301
        4.16195e-13 0.413729 0.109567
        4.02707e-13 0.413729 0.109567
        -2.57169e-13 0.601854 0.885301
        -1.43904e-13 -3.4772 1.23039
        -2.48873e-13 0.601854 0.885301
        -1.44572e-13 -3.4772 1.23039
        -1.31322e-13 -3.4772 1.23039
        -3.34838e-13 0.462128 -1.5772
        -3.34796e-13 0.462128 -1.5772
        -3.34973e-13 0.462128 -1.5772
        -3.22227e-13 0.462128 -1.5772
        2.44793e-13 1.67712 3.17786
        2.3689e-13 1.67712 3.17786
        2.66595e-13 1.67712 3.17786
        2.3687e-13 0.390773 0.251293
        2.28433e-13 0.390773 0.251293
        2.18997e-13 0.390773 0.251293
        1.42203e-13 -1.19942 -1.26965
        1.41382e-13 -1.19942 -1.26965
        1.39814e-13 -1.19942 -1.26965
        -2.38769e-13 0.275821 -0.242288
        -2.45452e-13 0.275821 -0.242288
        -2.40337e-13 0.275821 -0.242288
        -2.38846e-13 0.275821 -0.242288
        1.66808e-13 -0.513209 -3.10631
        1.76182e-13 -0.513209 -3.10631
        -1.5818e-13 0.325139 -2.8052
        -1.62992e-13 0.325139 -2.8052
        -1.59394e-13 0.325139 -2.8052
        -1.70011e-13 0.325139 -2.8052
        1.65282e-13 -0.513209 -3.10631
        -1.10353e-13 -0.133629 -4.4108
        -1.07719e-13 -0.133629 -4.4108
        -1.09111e-13 -0.133629 -4.4108
        -1.04073e-13 -0.133629 -4.4108
        -1.73692e-13 -4.21088 -1.6225
        -4.83637e-13 0.350188 -0.657381
        1.38894e-13 -4.21088 -1.6225
        -1.15074e-13 0.350188 -0.657381
        4.55487e-13 0.350188 -0.657381
        2.71426e-13 -4.21088 -1.6225
        3.67156e-13 -0.359184 -2.72642
        2.55076e-13 -2.02182 -0.214754
        4.26128e-13 -0.359184 -2.72642
        1.66668e-13 -2.02182 -0.214754
        3.99943e-13 0.413729 0.109567
        8.48853e-14 -0.359184 -2.72642
        3.51729e-13 0.413729 0.109567
        2.13522e-14 0.413729 0.109567
        1.0526e-13 -0.359184 -2.72642
        1.77673e-14 -2.02182 -0.214754
        2.4837e-13 -2.02182 -0.214754
        -2.65981e-13 0.601854 0.885301
        -1.08835e-13 -3.4772 1.23039
        -7.65488e-13 0.413729 0.109567
        9.44184e-14 -3.4772 1.23039
        7.26113e-14 0.601854 0.885301
        -1.00896e-14 0.601854 0.885301
        1.4903e-13 -3.4772 1.23039
        -3.50404e-13 0.462128 -1.5772
        5.52057e-14 0.462128 -1.5772
        6.27331e-13 0.462128 -1.5772
        2.66895e-13 1.67712 3.17786
        2.99196e-13 1.67712 3.17786
        1.38132e-13 1.67712 3.17786
        -3.65135e-12 1.67712 3.17786
        2.07937e-13 0.390773 0.251293
        2.67517e-13 0.390773 0.251293
        9.96044e-14 0.390773 0.251293
        -5.07479e-13 0.390773 0.251293
        1.34574e-13 -1.19942 -1.26965
        1.39394e-13 -1.19942 -1.26965
        4.10979e-15 -1.19942 -1.26965
        5.50016e-13 -1.19942 -1.26965
        -2.90043e-13 0.275821 -0.242288
        1.95069e-14 0.275821 -0.242288
        1.69645e-13 0.275821 -0.242288
        1.5971e-13 -0.513209 -3.10631
        2.74583e-13 -0.513209 -3.10631
        6.27902e-14 -0.513209 -3.10631
        -3.13408e-12 -0.513209 -3.10631
        -1.65846e-13 0.325139 -2.8052
        1.03171e-13 0.325139 -2.8052
        5.33928e-13 0.325139 -2.8052
        2.85012e-13 -0.133629 -4.4108
        -8.40004e-14 -0.133629 -4.4108
        1.42488e-13 -0.133629 -4.4108
        -3.52511e-11 0.350188 -0.657381
        -7.72621e-10 0.350188 -0.657381
        -7.67915e-12 -4.21088 -1.6225
        4.35271e-09 0.350188 -0.657381
        -2.98515e-10 -4.21088 -1.6225
        -6.01599e-11 -4.21088 -1.6225
        1.25585e-07 -4.21088 -1.6225
        3.89228e-07 0.350188 -0.65738
        -1.35176e-10 -0.359184 -2.72642
        -1.06464e-09 -0.359184 -2.72642
        5.0141e-08 -0.359184 -2.72642
        -2.01021e-10 0.413729 0.109567
        -2.10676e-09 0.413729 0.109567
        -4.12266e-11 -2.02182 -0.214754
        -2.6434e-10 -2.02182 -0.214754
        5.13929e-08 0.413729 0.109567
        1.5574e-08 -2.02182 -0.214754
        -3.76646e-11 0.601854 0.885301
        -9.98154e-12 -3.4772 1.23039
        -1.54641e-10 -3.4772 1.23039
        -7.31521e-10 0.601854 0.885301
        3.27444e-09 -3.4772 1.23039
        5.96266e-09 0.601854 0.885301
        3.83103e-07 0.601854 0.885301
        1.32418e-07 -3.4772 1.23039
        -2.75922e-11 0.462128 -1.5772
        -7.47972e-10 0.462128 -1.5772
        1.56934e-10 0.462128 -1.5772
        2.89985e-07 0.462128 -1.57721
        -1.82211e-10 1.67712 3.17786
        -5.58941e-10 1.67712 3.17786
        7.11958e-08 1.67712 3.17786
        -1.51779e-10 0.390773 0.251293
        -7.93249e-10 0.390773 0.251293
        5.89699e-08 0.390773 0.251293
        -5.42563e-11 -1.19942 -1.26965
        -3.74558e-10 -1.19942 -1.26965
        2.08799e-08 -1.19942 -1.26965
        -2.15459e-11 0.275821 -0.242288
        -4.30984e-10 0.275821 -0.242288
        3.28341e-09 0.275821 -0.242288
        1.95038e-07 0.275821 -0.242288
        -2.11784e-10 -0.513209 -3.10631
        -9.57569e-10 -0.513209 -3.10631
        7.70375e-08 -0.513209 -3.10631
        -4.04029e-11 0.325139 -2.8052
        -8.77665e-10 0.325139 -2.8052
        9.97834e-09 0.325139 -2.8052
        5.36836e-07 0.325139 -2.8052
        -1.56866e-11 -0.133629 -4.4108
        -4.28236e-10 -0.133629 -4.4108
        2.754e-09 -0.133629 -4.4108
        2.2655e-07 -0.133629 -4.4108
        5.25317e-06 0.350186 -0.657375
        -1.79009e-06 0.350217 -0.657344
        2.24514e-06 -4.21088 -1.6225
        -0.00100442 0.35093 -0.658098
        2.61319e-06 -4.21087 -1.62249
        -0.000512588 -4.21101 -1.62259
        1.35732e-06 -0.359183 -2.72642
        1.02679e-05 -0.359175 -2.72642
        -0.000138548 -0.359358 -2.72628
        1.54824e-06 0.413728 0.109569
        1.16256e-05 0.413729 0.109588
        -0.000128536 0.413909 0.109552
        3.05464e-07 -2.02182 -0.214754
        -8.19305e-07 -2.02182 -0.214753
        -0.00011525 -2.02175 -0.21468
        4.63022e-06 0.601856 0.885294
        -9.99879e-06 0.60185 0.885261
        1.1133e-06 -3.4772 1.23039
        -2.07931e-05 -3.4772 1.23039
        -0.000889823 0.601509 0.886323
        -0.000715581 -3.47728 1.23037
        4.6628e-06 0.46213 -1.57721
        4.51921e-06 0.462104 -1.57718
        -0.000825234 0.461344 -1.57596
        1.37764e-06 1.67712 3.17786
        3.18395e-06 1.67713 3.17785
        -0.000232907 1.67702 3.17794
        1.12945e-06 0.390772 0.251294
        -2.33997e-06 0.390773 0.251306
        -0.000347668 0.390994 0.251275
        3.90583e-07 -1.19942 -1.26965
        -2.82201e-06 -1.19942 -1.26964
        -0.000194732 -1.19933 -1.2697
        1.18957e-06 0.27582 -0.242284
        -4.59381e-05 0.275852 -0.242286
        -0.00115779 0.276623 -0.243153
        1.25079e-06 -0.513208 -3.10631
        -1.39372e-05 -0.513214 -3.10629
        -0.000722242 -0.513544 -3.10566
        4.17834e-06 0.32514 -2.8052
        -0.000112537 0.325091 -2.80507
        -0.003179 0.323846 -2.8021
        -0.00166053 -0.134245 -4.40982
        -5.60971e-05 -0.133639 -4.41077
        1.95281e-06 -0.133627 -4.4108
        -0.0138539 0.355973 -0.673308
        -0.084889 0.356307 -0.789976
        -0.236383 0.269277 -1.14081
        -0.00837436 -4.21483 -1.62489
        -0.0635829 -4.24948 -1.64181
        -0.207758 -4.3734 -1.67278
        -0.00375936 -0.363589 -2.72331
        -0.036326 -0.402883 -2.69411
        -0.158848 -0.560035 -2.54673
        -0.00363467 0.416048 0.105554
        -0.293286 -0.765975 -2.2166
        -0.03421 0.422147 0.0552674
        -0.139076 0.366551 -0.201332
        -0.284477 0.231567 -0.636022
        -0.0019071 -2.02124 -0.213332
        -0.0155896 -2.02276 -0.200951
        -0.0600969 -2.05975 -0.145189
        -0.0881355 -2.19062 -0.064426
        -0.0109646 0.598363 0.908216
        -0.0620499 0.594673 1.08502
        -0.00894221 -3.47933 1.22973
        -0.16374 0.636012 1.6394
        -0.060617 -3.49904 1.22336
        -0.202638 -3.57877 1.19327
        -0.0126395 0.453642 -1.55853
        -0.0865978 0.422026 -1.43332
        -0.243291 0.4116 -1.05527
        -0.00400693 1.67508 3.18159
        -0.031363 1.66136 3.22452
        -0.122606 1.6248 3.43712
        -0.247059 1.54388 3.76097
        -0.00560133 0.394445 0.24836
        -0.0438757 0.418972 0.210827
        -0.150673 0.472959 0.0124379
        -0.183311 0.385983 -0.336915
        -0.00309597 -1.19852 -1.27127
        -0.0255061 -1.19505 -1.28878
        -0.100216 -1.20237 -1.38266
        -0.117505 -1.33293 -1.57342
        -0.0123517 0.284202 -0.257653
        -0.067627 0.316127 -0.365816
        -0.15405 0.312257 -0.686076
        -0.0108653 -0.518789 -3.09703
        -0.0849594 -0.562089 -3.03452
        -0.305963 -0.731223 -2.83313
        -0.367877 -0.942636 -2.66687
        -0.319827 -0.409582 -4.2146
        -0.0365845 0.310157 -2.77043
        -0.12777 -0.208124 -4.33861
        -0.209986 0.236778 -2.59921
        -0.0202287 -0.143141 -4.3992
        -0.450998 0.127672 -2.25352
        -0.402081 0.287998 -1.45581
        -0.78748 0.501992 -1.73447
        1.83627 -1.6071 0.142396
        -0.259233 -4.47195 -1.60154
        -0.191843 -4.48585 -1.50936
        0.445981 -3.24672 -2.74579
        -0.301446 -0.881771 -2.04324
        0.211267 -0.643836 -2.98
        3.55653 1.89171 -2.32266
        -0.444093 0.315333 -0.809632
        -0.602147 -0.0567318 -1.4984
        3.67448 -2.13914 -0.961955
        -0.167163 -2.29742 -0.0679906
        -0.265771 0.602017 2.16598
        -0.709995 -2.16328 -0.0682728
        3.58891 -1.64511 -2.13061
        -0.310101 0.390323 2.70847
        -0.30594 -3.71231 1.13464
        2.36819 2.50843 -0.854279
        -0.364744 -3.86995 1.05496
        0.40315 -3.16234 1.61948
        -0.315246 0.363133 -0.734063
        -0.947795 -0.128385 -0.226572
        0.832204 0.53621 -3.9082
        -0.380469 1.33583 3.86052
        -0.928126 1.19801 4.81864
        2.73372 1.66011 1.42772
        -0.159962 0.287734 -0.584131
        0.795467 -0.127086 -1.37495
        3.14888 0.384539 -0.573918
        -0.0251116 -1.58533 -1.73032
        0.360888 -1.99528 -2.21892
        0.771766 0.114628 -2.65458
        -0.182988 0.168103 -0.976778
        -0.141719 0.121249 -1.29882
        1.83615 0.500009 -2.10468
        -0.241305 -1.06726 -2.60823
        1.00001 -0.596681 -3.73372
        0.629273 0.111567 -4.64238
        -0.314776 0.184721 -2.07348
        0.440486 0.0549434 -4.83496
        0.328875 0.469855 -2.43827
        -0.0444077 -0.405888 -4.36328
        0.965501 -0.112964 -3.26416
        -0.236811 -0.565862 -4.19277
        -2.3014 1.43302 1.84827
        1.06175 -0.23242 2.96652
        0.470704 -0.0390796 0.450135
        -3.45534 -2.81662 -1.42127
        0.849025 -0.0501184 -0.836619
        0.518316 0.132369 -0.0968267
        -1.58002 -1.70939 0.252476
        0.483291 0.166438 -0.394498
        0.190168 -0.0477371 0.162659
        -3.3728 1.08983 -2.05727
        0.184004 0.979489 -1.37482
        0.426851 0.237916 -1.03346
        -0.509793 0.206027 -3.81448
        0.919746 -0.221273 -0.941537
        -3.01005 0.419557 -0.457865
        -3.18472 0.913464 -2.02783
        0.353052 0.648691 -1.7759
        0.429491 -0.00834775 -1.56182
        -3.64169 -2.60895 -1.30369
        0.703665 0.00523204 -1.36439
        0.470139 0.369201 -0.686389
        -2.3433 2.22819 -1.00097
        0.322513 0.18986 2.33338
        0.199807 -0.114717 0.0615822
        -0.778262 0.331515 -3.70658
        0.927855 -0.0614037 -0.233718
        -0.93255 -0.489671 -0.633074
        -1.69002 -1.70595 0.211551
        0.515323 0.370714 -0.779027
        0.123447 0.0383137 -0.275843
        -2.40369 1.45109 1.80082
        0.984376 0.00409484 3.44298
        0.444709 0.187346 1.30505
        -2.14271 2.08665 -1.44392
        0.389706 -0.0417587 1.12025
        -2.11563 0.42055 -1.5593
        -3.20137 0.400718 -0.544718
        -0.954697 -0.231723 -1.16182
        0.143458 0.229291 -0.42851
        -2.22099 0.467139 -1.65885
        -0.507672 -0.143417 -3.76764
        0.0115509 0.564666 -2.96256
        -0.822591 -0.104345 -3.39969
        -0.229623 0.558288 -2.59055
        -0.331027 0.383075 -4.34986
        -0.140471 0.117961 -4.48337
        -0.581996 0.285905 -3.57134
        -0.398194 0.0131479 -3.83966
        0.306476 0.574091 -2.35983
        0.352815 0.158261 -2.86627
        0.310486 0.117499 -0.268871
        0.142746 0.0424728 -1.28418
        0.0301095 0.016722 -1.70027
        0.375208 -0.0285869 0.275535
        0.17101 0.0349019 0.746735
        0.0352581 0.0468479 0.969938
        0.26537 -0.0625044 0.602296
        0.0839864 0.0149524 0.952594
        0.011566 0.00705265 1.05367
        0.369516 0.263985 -1.27608
        0.181697 0.222477 -1.77688
        0.0357923 0.252727 -2.03837
        0.27627 0.0886116 -1.90512
        0.084517 0.0756301 -2.27646
        0.0101567 0.105756 -2.37963
        0.348681 -0.00743028 -1.82948
        0.168332 -0.0465784 -2.26081
        0.0324476 -0.00569196 -2.4634
        0.321084 0.246588 -0.402599
        0.162533 0.338491 0.0931973
        0.0384474 0.358312 0.362949
        0.196586 0.356031 1.08899
        0.0716793 0.306718 0.368363
        0.0117103 0.312775 0.147308
        0.279671 0.298421 -1.15096
        0.0952139 0.29292 -1.57921
        0.0128301 0.324839 -1.7154
        0.266348 0.125912 0.237397
        0.0908457 0.187761 0.644017
        0.0127362 0.170815 0.764215
        0.300735 0.322967 0.682594
        0.144552 0.248964 -0.355645
        0.0324571 0.22568 -0.849829
        0.227384 0.184289 -0.5901
        0.073832 0.105816 -1.37894
        0.0104156 0.102842 -1.57108
        0.227088 0.353187 -0.176781
        0.196506 0.445204 0.218571
        0.0535841 0.374417 0.43154
        0.335239 0.12297 0.700516
        0.132035 0.0704681 0.946073
        0.31668 0.31634 0.397776
        0.019728 0.0160381 1.00229
        0.0574086 0.078782 0.957474
        0.135976 0.264453 0.718102
        0.0213952 0.202128 0.801372
        0.336154 0.104682 0.463865
        0.246496 0.164145 0.812983
        0.409952 0.130904 -1.47939
        0.371311 0.290628 -0.774621
        0.324626 -0.0563636 0.365917
        0.280469 0.127182 0.0260435
        0.428678 -0.0322356 0.160474
        0.398604 0.1694 -0.239493
        0.312963 0.344449 1.76566
        0.384197 0.176311 0.388447
        0.522343 0.228421 -3.04683
        0.202298 0.22587 -3.4866
        0.0290058 0.259951 -3.66008
        0.509668 0.28749 -2.4138
        0.225799 0.37042 -2.81378
        0.0366567 0.434366 -3.00526
        0.521572 0.547114 -2.49058
        0.526321 0.0506998 -3.05797
        0.372479 -0.0292872 -3.4713
        0.396151 0.489643 -2.9069
        0.0930113 0.545584 -3.24705
        0.0819547 0.0264243 -3.76962
        0.443979 0.405158 -2.75404
        0.370133 0.359698 -2.23566
        0.002774 0.0205051 -1.76274
        5.95678e-05 0.021396 -1.76676
        -1.29029e-05 0.0214446 -1.76676
        -1.32971e-06 0.0214417 -1.76674
        0.00321063 0.0361421 1.01056
        8.72782e-05 0.0341899 1.01352
        -1.0917e-05 0.0340644 1.01352
        -1.16418e-06 0.0340658 1.0135
        0.000705408 0.00212808 1.06552
        -5.24316e-06 0.00157496 1.06599
        -4.0046e-06 0.00155669 1.06596
        0.00291374 0.270527 -2.08725
        3.94868e-05 0.272887 -2.09183
        -1.44372e-05 0.273015 -2.09203
        -1.2739e-06 0.273013 -2.09203
        0.00045722 0.112377 -2.39306
        -2.43898e-05 0.112935 -2.39399
        -4.53371e-06 0.112946 -2.39401
        0.00260089 0.0125936 -2.50047
        3.33039e-05 0.0147981 -2.5041
        -1.2991e-05 0.014903 -2.50428
        -1.13263e-06 0.0148994 -2.50428
        0.00377823 0.344498 0.41461
        0.000107709 0.341832 0.418535
        -1.39713e-05 0.341655 0.418551
        -1.58926e-06 0.341657 0.418531
        0.000819594 0.316421 0.121713
        -5.73438e-06 0.316788 0.12065
        -5.63621e-06 0.316792 0.120706
        0.000718858 0.332443 -1.73357
        -1.56635e-05 0.333141 -1.73478
        -5.12645e-06 0.33316 -1.7348