<?xml version="1.0" encoding="UTF-8" standalone="no" ?>
<VTKFile byte_order="LittleEndian" type="UnstructuredGrid" version="0.1">
  <UnstructuredGrid>
    <Piece NumberOfCells="0" NumberOfPoints="15094">
      <PointData>
        <DataArray Name="velocities" NumberOfComponents="3" format="ascii" type="Float32">
        3.94334 -1.1873 -0.946231
        -0.66243 8.29029 0.749095
        3.55446 -4.44453 2.77956
        8.07529 0.680631 -4.40704
        0.0758435 -0.15769 -2.47947
        3.82827 0.155062 5.98257
        1.29868 -2.61907 -1.30207
        -4.17116 0.54178 -7.92455
        0.0476802 1.94093 -4.3588
        0.695475 -1.09765 3.57972
        2.87822 -3.26305 -0.654659
        0.410668 2.08664 0.00180614
        -0.86823 -0.89319 5.00083
        -1.74617 -4.13249 -2.61541
        0.977083 -3.67828 2.20517
        2.45634 -0.00295075 -6.44603
        -3.27217 1.62053 -2.38381
        0.560833 0.773294 0.0550586
        0.726569 -0.560351 -3.31525
        4.42984 -0.569021 3.42769
        -0.0650173 -5.77988 0.500674
        -4.31166 1.16059 -5.93337
        -3.5547 2.92576 1.50983
        -8.0134 -1.53582 -2.50986
        4.03558 -1.96231 -2.2405
        2.67409 -0.7748 0.0568023
        -2.15716 -2.3371 -2.49538
        -3.81291 -4.06366 -2.59793
        1.67114 2.18501 -5.24143
        -4.20921 0.406845 5.42766
        -3.54484 3.7665 0.0843359
        -7.09115 -0.0718695 -2.32248
        -3.00135 0.493657 5.55797
        6.68401 5.89541 3.67795
        -2.50707 0.701634 -2.58829
        -5.46293 0.845177 -8.7605
        2.67608 3.27089 -2.88859
        2.47309 -0.319363 -5.67321
        0.135237 -0.316101 -0.125401
        -2.70643 0.408134 -3.27006
        -1.41525 -0.284439 1.18466
        1.61711 -1.98183 4.75408
        0.0279169 6.13066 5.6028
        4.68906 2.6174 2.04185
        -0.280009 -0.357106 1.62037
        -0.625334 -1.27162 0.907888
        3.12855 4.12486 -1.61667
        1.05555 2.41353 -3.75095
        -1.98099 1.58461 -3.73934
        -3.03098 5.70118 0.511871
        -1.07446 -2.28566 0.546392
        2.56114 -3.4235 1.02709
        1.95978 -3.02024 -3.27633
        -3.49537 -5.05443 -1.16436
        6.81212 -1.14124 -1.10247
        -3.73422 1.61642 -3.6371
        -2.32333 2.74033 -3.52126
        -1.07001 -1.69338 -5.31731
        1.51784 0.0285915 0.314542
        3.6815 -0.608888 2.48558
        1.94441 1.11841 4.7668
        0.863662 -0.805574 6.65966
        3.11679 -4.79747 -3.16864
        -0.762543 -2.13744 0.17958
        -2.36887 -1.88129 -0.426019
        3.55582 1.12946 -2.52573
        2.98636 -0.154836 3.59635
        3.14979 -2.17242 -5.4851
        1.15923 -2.43104 -4.27849
        -1.8545 4.38291 4.5535
        0.994103 1.18461 3.04271
        1.5616 -1.01607 -2.76311
        1.76643 2.23296 4.08367
        4.37546 -3.04606 -3.50448
        -3.55477 -0.287308 0.967489
        3.48527 -2.37306 -4.40817
        -0.856042 0.668468 -2.93654
        -0.52077 1.00094 -2.51084
        -1.19666 -0.729294 -5.41127
        1.50915 -0.142934 2.32913
        5.10578 -4.23968 2.65581
        7.2322 -0.140849 -0.751973
        1.91138 -0.658146 0.351679
        -1.98574 -2.62423 -1.76267
        1.72411 -3.24885 -0.196632
        2.95269 2.2599 -3.51547
        -9.03717 -1.11569 -1.86003
        -1.55716 -0.212368 -3.006
        -1.44517 5.25073 1.3769
        1.00983 -4.48111 4.33157
        0.931674 -2.17685 -2.09024
        0.428664 0.553453 -0.478717
        2.9252 -2.11565 -2.78278
        -4.19159 -0.31363 -2.58562
        0.137209 0.228358 -3.18317
        -0.462239 0.958022 -1.47762
        -0.101652 3.89426 3.85739
        3.44182 -1.48072 -0.243097
        1.85412 0.623887 -1.75071
        1.51144 1.42557 5.30023
        4.16283 -2.55885 2.16506
        4.5494 -8.07677 -2.37961
        -3.54358 3.6037 -5.5261
        2.87843 -0.277037 5.67704
        1.62372 3.44282 -0.53009
        -1.91202 -4.99853 -1.30749
        -3.55529 -0.226899 1.80572
        -7.31492 1.31419 -0.200037
        -5.64008 -1.15484 -1.71398
        0.969314 -1.6061 -0.722322
        -0.715372 0.346644 -1.60557
        -0.981639 -2.23723 -3.6652
        0.421601 3.4064 1.30808
        -0.325559 3.81764 4.80448
        -0.125171 4.11679 0.545362
        5.04449 2.28962 0.788819
        0.962831 1.54134 0.561921
        -2.71698 -3.74329 4.33624
        4.62175 -2.95413 -3.58037
        -4.59898 -0.813134 2.39726
        -0.175242 2.9315 -5.35559
        -2.92249 2.54693 -6.02477
        -1.91841 -3.6482 -0.859302
        2.89342 -1.9562 -6.39071
        -0.755302 3.56207 4.89423
        -2.67026 3.5901 1.11506
        -7.93913 -1.94879 0.871763
        -2.32812 0.994064 -0.643681
        -4.22069 -0.800204 4.42319
        2.71986 -0.0986001 -1.60045
        -6.01917 0.943799 -0.250197
        -7.28893 -1.94321 2.56091
        -2.42288 -0.849271 -7.95247
        -6.03595 1.44114 -0.528136
        2.96579 1.94132 -1.03377
        -0.969009 1.84674 1.17887
        0.379423 -0.455699 3.09804
        1.75192 8.90426 1.93752
        -1.67668 1.20672 -1.09438
        -5.02676 2.78178 -1.23854
        -4.70789 -2.41204 2.97088
        -4.085 -7.94852 1.14756
        1.59534 0.785251 1.36275
        1.5038 -2.10876 -2.7255
        0.194409 -3.33474 0.147246
        1.42009 -1.88894 -2.3968
        2.88028 -5.79739 0.525454
        1.375 -2.56732 -6.70166
        1.64974 -4.87369 5.45796
        -4.63979 5.24687 -7.55649
        1.30214 -1.73086 -4.00435
        4.55781 2.65531 3.05117
        -0.973989 1.61067 -1.7443
        2.02381 -3.83619 3.38353
        -1.07675 -0.506246 -6.04326
        -0.651839 -0.69975 -1.21538
        -1.5167 -4.00424 8.26473
        -1.89487 0.361057 3.76321
        -0.30203 2.45574 0.774059
        -5.43496 2.46156 -2.8888
        -5.20745 1.36493 -3.61045
        0.319836 -3.56085 -1.83992
        3.11866 0.716796 1.58869
        -1.16367 6.63303 3.7697
        -1.30877 -3.43166 1.7058
        -1.23156 -0.773174 1.61741
        -0.0905607 -2.21496 0.520669
        -1.21538 0.254197 4.12649
        -4.27205 -1.29929 5.15968
        1.69051 -2.2812 0.156305
        -1.96979 -2.92839 -2.99759
        -3.10634 1.58758 -6.20028
        4.69661 -3.07919 -2.51909
        2.30953 3.58971 2.33567
        3.6193 -2.73529 -5.64462
        1.48136 -2.19857 3.75974
        5.52516 3.15047 -1.53424
        1.72413 4.46268 -4.60219
        2.43274 -0.846766 3.33925
        3.71841 0.681242 -8.13178
        0.83562 -0.924268 -0.0678238
        4.43361 0.379228 -2.0068
        -1.9805 -0.986527 0.303228
        0.391677 1.26495 4.63952
        3.58648 5.96296 -0.147355
        4.30249 0.888868 4.0827
        6.23897 1.11201 -0.779188
        0.842426 3.50417 -1.97024
        -3.9283 -0.0508486 2.28973
        8.708 7.06814 2.69965
        -1.45358 -6.51158 -1.05082
        0.247405 -1.03519 -2.82207
        4.22667 1.69239 4.20558
        4.22218 -1.1637 -1.28821
        5.59085 5.12748 -1.409
        3.29102 2.95925 0.108425
        0.431006 0.247233 1.36323
        2.02645 -1.62037 3.39685
        1.63181 -1.33816 -1.76305
        7.9331 -5.82994 -2.35727
        -2.10828 -0.25865 -0.915949
        6.11617 1.8355 0.942942
        -1.9891 -2.13854 1.80234
        5.80249 -8.69058 -0.489422
        3.68659 -1.72631 -1.82975
        -2.20131 8.96011 -3.47588
        1.43772 -1.56408 9.44536
        -3.01513 -1.13798 1.95071
        5.49525 -2.61271 -1.16343
        -2.86182 2.1048 -1.63399
        0.834045 -3.91801 -3.41765
        4.9035 2.96281 3.57498
        -5.49528 -2.3971 -5.57174
        -3.11466 -3.73762 1.10794
        -5.73984 2.4002 -0.614661
        -0.959316 -1.48675 0.28402
        8.18038 -0.187286 -0.413133
        3.64348 0.613403 0.726052
        6.16771 1.49927 2.77341
        4.45314 -1.36276 -0.836669
        -1.7031 0.175152 2.23196
        -1.04044 2.12036 -11.543
        -0.533949 -2.29819 -6.59721
        2.75129 -1.8416 2.9956
        -3.28769 -1.99637 -3.47036
        0.76997 6.33685 3.22136
        1.87607 -0.63499 -4.35684
        -1.84965 8.21608 1.77559
        0.856365 -1.80148 0.193734
        0.183254 -6.31693 -6.7895
        -1.50469 0.0830389 1.06099
        -0.259839 0.796523 -11.4593
        2.31371 1.56874 3.57388
        -3.61882 -0.709332 2.11239
        -4.67611 1.36399 1.75784
        -3.77477 7.47916 -0.761019
        5.17203 -0.685028 -0.107572
        1.80803 -7.34102 1.37939
        2.79661 -0.334084 -1.38707
        4.25413 1.5117 5.20139
        3.86757 -2.30349 2.37735
        0.882029 -1.98752 -0.75018
        0.262677 5.70346 2.63491
        -0.551396 -2.51647 2.57923
        4.87451 -2.31746 0.177685
        0.662607 -1.49971 2.04945
        -1.54403 6.19746 1.10547
        7.1518 10.231 3.90254
        -1.40848 1.30442 3.85491
        -1.47917 -0.492814 2.24658
        -3.82881 -4.87945 1.27289
        2.70526 -1.27313 -0.282597
        -0.34066 0.411681 -1.839
        1.22358 -4.25942 -4.22923
        -1.13788 4.79516 -1.75148
        0.506653 4.93013 -4.00488
        1.38653 -4.32816 6.27226
        5.90771 1.63578 0.512662
        -4.48707 4.24815 1.18441
        -3.20886 1.00194 5.65513
        1.91965 0.642352 -4.71612
        0.074234 5.23996 2.46832
        -0.312174 1.59625 -0.0372357
        0.505554 -1.50901 -0.909458
        -1.92401 3.2279 -2.46611
        -0.526801 3.44011 -2.30088
        -3.48112 -0.824903 2.8494
        -1.03975 -0.8276 5.00825
        2.39647 -2.08072 4.07644
        -6.26165 -2.20762 -3.92269
        0.0704157 -5.15569 0.294434
        3.91283 -3.51395 -0.726925
        -3.06171 -1.91575 -1.37605
        4.86062 1.54626 2.59093
        -4.90888 0.721648 -3.20319
        1.17401 4.07572 1.0959
        -2.38545 -2.3194 1.35864
        2.54989 0.804103 -3.59016
        -3.85106 3.37883 -0.357217
        -2.02674 1.1097 -0.27519
        2.5396 -8.06732 3.95185
        2.50542 1.54552 -3.71532
        2.69802 1.11061 1.8675
        1.42879 2.45 -1.61349
        1.94897 3.47013 1.05368
        4.99967 -3.72684 -6.55031
        -3.35282 -1.17369 -2.28744
        5.68424 -3.49632 2.58413
        0.938193 5.39571 2.88746
        -2.76836 -1.88875 6.39288
        -2.74956 -0.891769 0.23331
        3.59226 1.64496 1.06878
        1.09113 -2.16476 -3.58817
        1.19799 -2.74102 -5.26384
        7.9973 -2.15986 1.41752
        -2.15474 -3.18928 -1.54731
        -6.75384 3.02174 -2.58403
        0.62234 -1.6351 -3.64001
        1.58148 0.0840389 -4.73194
        -4.06818 -3.36909 -0.48516
        5.3736 -1.83706 -0.112693
        -1.02088 1.70427 -0.82234
        0.911376 3.99227 2.60432
        -2.72557 -4.56523 -1.69079
        7.4855 5.9894 -2.38096
        -1.26081 2.8238 0.607952
        -1.66927 0.343293 -4.94016
        2.26152 2.3127 7.58002
        -3.37272 4.87066 -2.8868
        -5.19718 0.994635 -1.55306
        -1.58313 -4.95291 0.810173
        -0.505744 1.95719 -5.77687
        2.42282 -0.400747 4.0504
        -0.757718 0.856961 5.4187
        1.41352 -3.56195 1.19328
        1.67398 1.80556 -1.81755
        2.08532 -1.65411 0.0409278
        -4.44779 -4.80366 3.18579
        -1.26576 -1.45945 -0.909272
        -2.84503 6.76819 2.58515
        2.74742 3.6968 -3.04348
        -3.95076 -3.68789 0.715762
        -1.59774 -2.42889 -5.29166
        6.88755 -2.02515 0.450722
        2.91466 -4.06206 -0.308913
        -1.34184 -3.82013 3.6639
        -1.23747 5.67129 -1.50513
        -1.23295 4.28117 1.52235
        1.81704 -3.33627 -0.602454
        -2.82551 -4.24683 2.776
        -4.00491 0.113261 -1.10556
        0.788327 -1.87304 3.9507
        4.85532 1.76859 -2.01782
        -1.47086 -1.43948 4.72531
        3.03148 -4.44191 -0.425171
        3.35665 -0.151105 2.36241
        -0.411868 1.48863 -1.9559
        -4.44073 -4.46985 -2.99414
        -0.233947 -0.0117469 -6.41389
        -2.15839 -0.220794 -1.94699
        4.0779 -6.42977 5.15429
        1.03965 3.91609 1.92123
        -0.53106 -1.75058 -0.362659
        -4.21441 1.48837 1.75316
        -0.610616 5.86062 -1.95965
        1.99734 3.67222 -1.62465
        -1.79713 -3.7108 -2.09403
        0.598646 -0.0149163 -0.707597
        -1.63343 6.28234 1.37938
        1.63129 2.3804 2.37864
        -0.550182 0.729744 -0.868766
        1.57787 -0.431427 0.867212
        -3.54327 2.38666 -1.79462
        0.657408 3.9414 1.9032
        0.236564 -1.28413 2.23412
        8.97891 1.1375 -0.38417
        0.177739 -2.11283 0.438585
        -7.22459 2.7317 4.53783
        -2.58088 2.56101 3.0257
        -1.18241 2.0208 4.75436
        3.75812 -2.23664 -1.58808
        1.27121 0.816841 0.694193
        -0.262705 1.0601 -2.86293
        0.0769506 -4.80593 0.184466
        -0.838111 -2.60385 -0.712917
        -3.9592 2.98893 -0.928395
        -3.97307 -1.4385 -4.81017
        -1.21466 -0.137601 0.287814
        0.59463 2.75248 1.64622
        -1.75149 0.850895 1.8633
        -1.7419 3.17535 0.757534
        -2.55756 -6.98653 -2.65192
        1.70976 -3.44013 0.594516
        -2.47328 4.1786 -3.48312
        -1.49047 -6.84719 0.222138
        5.585 9.30919 1.60658
        4.63681 2.21414 -0.703544
        -1.09475 -3.10558 0.365835
        3.84799 -0.412379 0.95606
        2.9669 0.453185 -1.86584
        -0.0312007 -2.80232 -7.25745
        -0.294608 -1.63533 -2.3228
        0.526391 0.209229 -0.0495379
        2.99459 2.24239 -0.36602
        5.345 -2.78263 -1.37073
        -3.00105 -0.228162 -4.23145
        -1.68151 2.93697 0.532919
        2.76958 -1.45486 4.15209
        -0.727256 -0.767419 4.76107
        -0.0576055 4.07831 -0.565593
        1.39215 -1.54995 -2.07602
        0.668834 -0.787461 -0.56253
        -0.788532 -4.4991 0.25103
        2.95336 3.09023 -2.25855
        0.173493 3.81441 2.16858
        2.4812 0.0162257 -1.92846
        0.462375 -3.47843 -1.94082
        -0.480398 -0.495135 1.46638
        1.91876 -2.18909 -6.12974
        0.780636 1.3871 -3.70477
        -0.232497 -0.598209 2.30893
        2.18967 4.05495 -1.18492
        -3.47699 1.7311 2.15314
        -3.2561 -1.78282 -0.727265
        4.05518 4.90611 2.40538
        -4.89156 -4.99917 -4.98081
        -1.98914 -6.06611 -4.76027
        -1.02985 2.8279 -2.94444
        5.07698 3.54253 -5.8722
        5.7272 -3.23895 -5.38557
        -1.12059 0.165265 2.40992
        3.60923 4.25307 -1.7325
        2.17011 -3.83993 -0.682634
        2.59211 0.448972 -1.60892
        -3.49419 2.98569 0.360102
        4.24213 1.67999 3.44225
        -5.24541 -0.581825 2.10539
        -3.37981 -2.88863 -0.604512
        -4.00648 1.06475 1.69346
        2.21633 -1.67327 -1.03212
        -0.426367 6.55342 -0.323568
        0.750518 3.80798 -0.0673396
        -2.82074 -3.32797 -1.03987
        4.86619 0.355867 0.207345
        0.652366 -4.62196 -3.0399
        0.843294 -2.81221 1.59393
        0.0546244 1.4133 -1.33272
        -1.34183 0.561216 0.0210839
        0.480819 1.91445 0.406168
        2.79673 7.06114 0.470099
        -2.86193 2.62465 4.2357
        -2.02223 0.35858 -1.37074
        -5.59251 5.15156 -2.90877
        -0.0716492 -0.702869 -3.3433
        -0.0089652 -3.21797 -2.27977
        -4.97945 -1.39333 -9.60902
        0.580397 0.600742 6.73777
        -0.505128 2.85764 -2.88408
        -4.86998 -0.34582 3.26542
        -1.12468 3.42252 4.76922
        1.66114 3.50932 -1.17591
        -3.7543 0.675682 -1.33602
        -1.6281 1.05798 -2.59475
        -1.90273 7.13176 1.9026
        0.797687 5.87394 0.790012
        1.80004 -1.00264 0.218024
        3.0953 -1.70479 1.82182
        2.65137 4.23336 -1.26718
        7.61518 -4.49172 0.544135
        -5.94738 -0.466083 -4.94823
        -5.4272 -4.83156 0.206641
        1.62933 3.7573 -3.48062
        -1.20422 -3.50215 1.02402
        -5.47554 -2.45286 1.92395
        0.691429 -5.93771 -2.8316
        -5.48652 -1.37838 -0.741648
        -2.2962 0.99407 4.81888
        -0.674876 -3.32474 -1.40686
        -0.355833 1.67235 1.86438
        1.93855 2.05363 3.24338
        0.450541 1.04104 -0.146567
        -4.79999 0.721059 2.98898
        2.9352 2.65324 1.02169
        4.43832 3.07621 -0.615292
        -0.672205 -2.72859 2.21201
        1.09371 -0.626388 0.693747
        -2.23245 -4.95883 0.346368
        -4.42513 -2.81533 -6.59845
        9.27258 1.9692 -6.81306
        -1.99657 -0.578473 -1.07063
        -3.16828 -4.04588 0.58203
        4.09525 -2.12578 4.50321
        1.23262 2.85417 -2.1125
        3.22111 0.247428 2.35989
        -3.99972 0.392231 1.92057
        -4.7295 1.442 1.7856
        1.25182 -1.43561 -2.76888
        -3.01507 0.611159 1.10275
        -1.36874 1.6766 -0.792378
        5.13941 -0.995114 -5.53648
        2.80907 -4.28162 2.73717
        6.85063 -0.940504 -1.22296
        -1.12726 -1.11512 0.84055
        -0.163621 3.21113 1.93689
        -1.13792 4.09374 -6.25279
        4.61277 7.84648 0.81911
        5.41122 0.174922 3.15789
        3.75402 0.512257 0.0954231
        -2.9321 1.8183 -2.19261
        -2.45791 1.27452 -2.77168
        -7.35716 -3.84219 2.38127
        3.19887 -7.12658 3.35003
        1.41071 0.980027 -2.74915
        1.0436 1.74567 -5.15461
        -0.158588 -6.02349 -2.88752
        -1.93438 1.62692 8.03514
        3.13133 2.63748 -1.80181
        4.07864 -0.526531 -4.59759
        -4.55621 2.47029 -2.07176
        0.349765 0.219483 2.49338
        3.16908 0.229642 2.60345
        0.674623 0.712791 4.55518
        2.6481 1.9472 1.33582
        0.889943 -1.29031 -0.325966
        -1.21276 2.73701 -1.92104
        -3.48464 3.59007 0.315009
        -0.0972078 -0.96034 -4.00904
        -1.11368 2.12888 4.72127
        -3.01665 3.44425 -3.72553
        -1.81858 0.186549 -3.53653
        -3.55899 3.4099 -3.01129
        2.91865 3.62937 1.59968
        -3.9736 2.52899 1.7193
        -4.08398 2.13578 -4.88008
        0.794696 4.95823 -2.76866
        0.96398 -0.29857 3.3137
        1.29893 2.84431 -3.5143
        -0.724664 -0.055854 9.366
        4.35111 -0.244535 -4.54849
        0.935398 -4.06868 -0.540397
        0.149669 1.43895 0.514783
        2.9509 0.437575 -1.06906
        -2.74235 0.0457075 -2.90356
        3.59601 -1.65834 -3.53201
        -7.0082 2.50418 1.14112
        4.89236 -0.436556 6.55387
        -2.96724 -1.55353 2.66213
        -1.20638 -0.776521 0.526799
        4.07123 0.804955 0.382337
        1.35362 -2.71378 -2.37234
        -3.25134 5.20587 -4.21788
        -2.23713 -4.32695 1.62986
        -4.01766 -1.05741 -0.250664
        2.76366 -6.43846 2.70855
        1.11039 0.405445 -2.39682
        -4.41099 -4.3218 -2.14306
        1.56578 -2.19645 0.617813
        7.47202 2.11031 0.123255
        -0.15491 3.0955 -1.74603
        -3.66961 -1.12774 2.53453
        0.299098 3.1235 -0.495391
        1.80152 0.631389 0.849136
        -1.27321 1.60291 -5.38338
        0.751125 1.11156 -5.7171
        -1.46958 -1.24784 -2.47154
        1.02974 2.00115 5.39138
        -3.46313 -6.28974 1.99319
        1.09793 1.31688 0.309023
        0.653001 -2.25576 0.787509
        1.73681 -2.91422 1.49543
        -7.37414 0.396926 -0.123208
        1.97177 -6.19743 2.05607
        -4.90825 4.88257 1.29568
        2.5293 -5.08884 2.37523
        -1.49927 3.70567 -0.749523
        -3.77301 -1.02885 -0.495188
        0.759677 -1.07809 3.0319
        -1.00729 -2.55922 -1.7707
        1.79791 0.184181 0.027151
        -4.01931 4.75424 -0.886586
        -1.46601 -4.15054 -2.61437
        -0.95548 1.39406 3.65823
        0.754907 5.45221 1.19163
        3.85871 -1.39681 1.31377
        -1.74507 -1.07421 -4.07704
        -0.829071 -1.47415 2.74241
        -1.5279 0.742501 -3.22676
        -0.172361 -4.09157 -7.16089
        1.47046 -0.969045 -0.693835
        1.79831 0.75243 -0.963969
        2.60659 -0.85034 -0.318861
        0.469683 -1.96814 6.24749
        3.41317 2.1052 0.96507
        -2.3496 -2.78483 -5.20586
        -3.79373 3.70615 1.805
        -1.13826 4.33303 5.94169
        2.12863 0.674633 -2.24725
        1.69021 1.6716 -1.9027
        -6.17056 1.4039 -4.61173
        1.736 -1.30966 0.0212915
        3.6438 -3.3613 0.199486
        -0.170439 0.144618 0.141896
        1.43671 -2.80748 0.620548
        0.277881 -2.15103 -0.661892
        1.77925 -0.424277 0.532164
        4.42631 0.465683 3.29267
        -0.952897 -5.27668 4.35843
        2.36805 -2.0588 -4.36935
        -3.90202 -1.24864 1.68407
        -1.58941 -3.38651 1.96003
        -0.495311 -1.06225 -1.5844
        -0.810156 1.72132 -1.07162
        -0.210144 -0.925281 -4.80208
        1.39458 -0.966726 1.73177
        -2.71975 2.48367 2.24021
        4.91463 -1.96389 -1.09352
        1.37688 2.4433 -1.48663
        -1.24596 1.64449 -5.66337
        -3.12075 -3.32345 -0.377966
        -1.69368 6.48063 -2.03999
        -1.17568 -0.469793 4.18974
        4.11383 4.95646 5.04114
        6.82222 3.03593 0.85682
        -3.09058 2.39226 -0.383291
        0.213613 1.90347 -1.84922
        -1.28024 0.710381 -1.07057
        1.08855 -4.48808 0.510828
        1.93261 -4.04573 -3.66792
        0.712802 0.783701 -3.07216
        0.397453 -1.96455 7.46661
        1.90478 0.561712 3.59981
        -0.539924 3.49649 -1.51512
        -2.56348 2.01958 0.408425
        -1.74147 3.07026 -1.75835
        -1.4806 0.887962 1.74393
        -0.367632 -3.78731 -1.95541
        0.0348887 0.00901914 -3.76691
        -1.56276 -2.92253 -2.4662
        0.00324786 -1.74429 -4.10484
        -0.110368 -0.726476 0.182703
        -2.05796 1.05127 -4.44383
        1.10154 0.613403 -0.931632
        -0.199766 0.844341 2.34002
        0.870774 -9.31645 3.18721
        -2.79411 4.55931 0.993078
        1.13269 1.80914 -2.51719
        1.65296 1.40808 1.75114
        -2.28717 -6.24672 -3.52455
        -1.4198 0.545856 1.20394
        -1.04711 -4.79395 1.79132
        1.40794 -2.72293 -2.99667
        -1.11603 -1.62628 2.87708
        -2.52371 -2.24871 -5.01725
        -2.64874 -1.91938 0.472253
        2.016 0.0468283 -3.5212
        -7.31117 2.1013 2.14451
        -0.654387 2.13366 -0.043922
        1.6999 -0.488654 0.385954
        0.57409 1.30887 1.91213
        0.349286 1.93159 4.03465
        -3.25981 1.16521 -1.65237
        2.89173 -1.55277 -4.42674
        -1.80853 -4.72481 1.26225
        -3.28343 -0.0820948 -4.73053
        -6.47595 0.0442977 2.86316
        -2.11394 2.97184 2.3562
        -1.61497 -1.79765 4.93099
        3.25337 -5.78673 0.904115
        2.36778 3.35971 -1.58191
        6.20281 0.878999 -3.03417
        2.63359 1.66934 0.715282
        6.49451 -2.24896 -4.90934
        -1.40475 7.27372 3.57995
        4.45714 2.77418 -1.57324
        4.0614 -0.708987 -2.90458
        0.902391 4.1889 1.24568
        0.590225 4.40122 -0.103523
        1.18941 0.860344 4.88401
        -1.3635 2.67353 -2.38483
        -4.58276 -1.21794 -0.239683
        2.34367 -1.604 -1.8843
        1.4014 -2.16428 0.352683
        -0.132722 -0.486298 0.495397
        -6.37942 3.49912 -1.69989
        -1.07041 -0.630427 -0.17865
        -5.27126 -3.17632 -2.59672
        -2.12052 -1.61534 0.918619
        2.84019 -4.70902 -2.01785
        -2.50679 4.74646 -0.838165
        -0.922782 1.35407 0.647726
        0.0241741 0.915259 -7.14044
        -0.17536 -1.60359 -2.06839
        1.25991 3.67886 2.15831
        -3.30588 -1.57214 -1.54061
        2.76178 -3.17336 -0.112951
        0.154226 -1.38715 1.86359
        -1.77656 3.84989 -6.70724
        -3.51794 1.53958 4.55388
        2.62893 -2.11452 -3.90622
        0.479307 3.39571 0.849119
        -3.94517 -5.3561 -2.74095
        0.867967 0.850664 -2.10493
        -0.804109 -3.34601 -5.83208
        -2.73944 1.66342 -0.390587
        -1.2262 0.821704 0.623469
        -1.61355 5.25833 4.57752
        1.22199 1.61449 -0.787036
        0.410507 1.81961 1.59311
        -4.76422 1.15017 0.243382
        5.34635 2.77578 2.7754
        -3.07222 -1.16307 6.71033
        0.27659 -0.239867 0.474392
        -1.85713 1.28216 -2.72574
        -5.0073 5.59859 4.78105
        0.548608 0.39228 -1.37155
        -0.733225 -2.11907 2.80026
        3.70004 2.44004 -2.78266
        -1.79811 -4.83169 -1.8603
        0.657998 -1.85248 -0.0491441
        -0.995234 3.72493 0.185866
        4.40865 -0.687782 2.78693
        -0.479333 4.59939 3.64257
        -3.15539 1.52722 2.34917
        4.95399 -7.6088 0.356942
        -0.28978 0.908133 -1.11288
        -7.39962 2.582 3.55858
        -4.67841 -0.606613 4.84135
        -2.53638 2.4109 -2.21935
        1.02442 0.192505 4.40674
        -0.195997 0.415773 -1.36751
        -1.85362 4.22071 -0.317866
        -4.82246 2.25136 -5.07711
        2.06794 1.05161 -6.30479
        2.13744 0.179468 3.64494
        0.821004 2.01044 1.84463
        0.738222 5.18001 -6.16698
        -2.21669 0.0726349 2.82456
        1.93122 -1.17332 -4.37662
        3.41336 -0.471108 1.11545
        2.35717 -2.43924 2.2413
        -1.09412 5.12689 -1.59739
        -5.52918 1.78864 0.267886
        -3.19422 1.65813 -2.04315
        -4.35943 -4.76561 -1.5541
        -2.6533 -2.47846 5.25709
        3.63316 -1.60657 1.43721
        -0.153123 -0.781524 -1.54863
        -2.35621 1.85297 3.05189
        -0.925867 2.33969 0.537772
        0.188326 3.42015 3.39534
        1.98993 2.59274 1.22757
        -0.324507 2.0502 -2.28033
        0.428437 1.31186 -3.02785
        2.08894 6.13133 1.93043
        2.96605 1.98618 3.01397
        -5.2248 -2.65927 -1.56309
        -7.16012 -1.31702 -3.26869
        3.61598 2.21672 2.52361
        5.42502 6.29467 -1.38192
        -7.30386 -1.55618 1.72729
        2.85661 -1.13005 -1.79934
        1.49565 -4.44055 -6.28811
        -0.0760369 2.52117 0.586033
        1.65797 0.607497 -4.49055
        0.390991 5.10444 0.828652
        0.200665 6.17589 -2.30496
        0.917997 -8.09753 -0.866807
        -7.49107 -1.37077 -3.69181
        -2.97025 -0.497602 3.175
        2.83917 7.59758 -5.49395
        4.54949 6.33126 -0.280039
        -1.85606 0.825153 3.34568
        -11.1058 -6.05103 1.48304
        1.61956 -3.71775 -0.650693
        1.82259 -3.86749 0.236207
        -1.21348 1.17358 -1.19531
        -1.51749 2.52747 1.95255
        -3.22235 -4.24746 2.39733
        -2.4713 5.83545 1.70145
        -3.9858 1.7111 3.67196
        0.688027 1.89272 -4.49944
        -0.287587 1.2174 -0.605335
        -0.935356 8.16159 1.07342
        0.347742 1.45379 2.36628
        -5.07063 -2.13104 -1.46188
        3.02296 -0.639461 2.29468
        5.94537 0.0793292 1.27965
        0.977565 -0.129291 -1.9157
        -2.09719 -2.1075 1.7091
        0.878328 0.725348 -0.916276
        1.90388 -5.36211 2.54969
        4.21587 2.35815 -0.67008
        -0.381287 -0.914395 -3.62639
        0.367579 -2.6476 -1.22945
        0.579712 0.742146 2.03674
        2.74884 -1.43106 -1.78492
        -6.02653 -3.65574 4.06584
        6.88441 2.65043 -2.47876
        -0.12719 5.58146 4.17023
        -0.526657 -0.33137 -7.5375
        -7.48478 -2.74484 -1.5628
        -1.50132 0.274811 -1.07849
        2.02209 5.86395 -1.99468
        -1.36613 1.48623 0.471303
        4.25265 6.99181 0.0920892
        0.925585 6.91364 0.694979
        0.555737 -1.18115 -1.30501
        -1.86869 1.01126 7.64393
        -6.19435 7.60408 -2.21667
        6.49059 -0.563614 -2.04085
        -4.99166 -3.69219 0.947726
        -4.44466 0.750769 -3.66426
        -0.37311 2.63894 -3.27085
        -5.56493 0.542054 -5.08652
        -1.06037 0.469684 -7.22247
        -2.34473 -1.50306 -1.08468
        -2.741 3.15954 1.0917
        -2.06453 -7.84339 4.10768
        2.46869 4.91145 1.27928
        -0.553104 5.40568 4.21408
        -1.05447 -3.03087 0.957923
        -0.477459 -3.22721 -2.82463
        -7.83089 5.38167 2.29107
        0.587469 -3.89985 -2.8539
        -0.124217 2.23037 -5.62374
        2.31152 1.49169 7.86949
        -0.364647 0.749199 -4.74549
        3.30555 1.07997 1.90631
        0.505028 1.11783 1.78757
        -7.61428 -0.931371 1.23995
        -2.01077 -1.7761 -6.93434
        2.24786 -3.01111 0.982493
        0.802164 -2.65414 -5.3791
        0.346471 0.464099 1.68187
        4.56101 2.0788 2.92715
        2.85187 2.24658 -0.990184
        1.31758 -0.564524 8.89282
        3.49614 3.63724 -0.813408
        2.73594 0.211406 -5.92839
        -2.67285 3.41892 -0.715947
        8.72304 -2.5123 -1.53482
        -0.744679 1.30289 2.01427
        -0.193117 3.10305 -2.0515
        -1.26551 2.30704 2.20226
        0.239802 0.426173 2.23171
        4.83961 2.551 -1.34182
        1.63501 -3.88832 0.955891
        0.513895 -3.93523 -0.61166
        6.42299 -1.2574 1.39871
        2.52825 1.40695 0.475314
        -0.00639222 5.17665 -4.37085
        -1.34218 7.57641 -1.5873
        -2.48311 0.880957 2.33953
        -0.179648 -3.67697 -2.68279
        -0.0644725 6.2191 2.84484
        2.28718 6.27968 1.79224
        0.845622 -0.524539 -5.23243
        3.42975 -3.81906 1.47383
        3.66164 -5.86282 2.49752
        -0.409772 0.441504 -2.59746
        4.71821 3.32726 -5.31622
        -2.38037 -5.37609 -4.16514
        3.60112 3.37085 2.00199
        -3.23524 -0.129489 0.365126
        1.19696 0.383856 2.75497
        -0.400751 1.20896 2.53791
        0.30764 -0.745335 -0.714526
        0.146384 0.448214 -1.23751
        -0.0386767 -0.198112 -4.22923
        1.05493 0.490531 -2.22218
        -0.849662 3.14303 -0.2438
        -2.39207 3.63945 3.66304
        -0.292348 -6.35982 0.539486
        -4.43581 -0.50419 1.12747
        -1.37831 0.372547 -2.25991
        -1.9458 1.49473 1.09676
        -0.405998 -0.139222 -5.35192
        -0.946135 -3.16157 6.48122
        3.39897 -2.03089 -5.16303
        -2.21287 4.16506 -5.11862
        5.0567 3.88542 -10.4766
        0.02263 2.34549 0.126111
        1.16278 5.06272 -1.1238
        2.97308 1.46939 -1.52997
        -6.12484 1.23717 -0.98005
        -0.289704 0.0473612 0.326379
        -4.61114 0.45267 -3.16221
        0.945667 1.92703 1.51363
        2.92815 -9.25115 -2.35446
        3.50931 -1.78895 -3.40226
        -1.80508 0.472728 3.71138
        0.780701 3.99351 -0.778145
        -3.39163 0.362775 -6.0284
        -1.1976 3.61467 -2.13494