<?xml version="1.0" encoding="UTF-8" standalone="no" ?>
<VTKFile byte_order="LittleEndian" type="UnstructuredGrid" version="0.1">
  <UnstructuredGrid>
    <Piece NumberOfCells="0" NumberOfPoints="15094">
      <PointData>
        <DataArray Name="velocities" NumberOfComponents="3" format="ascii" type="Float32">
        4.41346 -1.3636 2.20599
        -7.34237 -3.45389 5.17674
        2.38023 5.32256 1.18415
        0.299889 -2.27392 -0.12915
        -1.24791 1.47514 2.64961
        0.645837 -0.756037 -0.87351
        2.89565 -1.44377 -2.17373
        -6.6671 3.04604 4.41363
        2.85086 -2.10364 4.24748
        -6.07861 2.1238 -2.73697
        -5.78079 3.47841 2.91077
        -0.392871 -5.90297 4.70329
        7.62726 0.369299 1.43212
        -1.12157 3.56057 0.33216
        6.7379 0.345713 9.43904
        6.05536 -3.18366 9.41337
        -1.33413 0.400419 4.43437
        3.13791 4.85432 2.04785
        -4.88241 2.8992 -1.56467
        4.78651 -5.20811 -4.80206
        -1.42354 -2.95038 1.52128
        -2.27371 3.22036 -2.5739
        0.152493 -1.70964 2.81632
        3.3028 -1.96758 11.9567
        -4.59304 1.47848 -5.19065
        3.74883 0.383647 1.65173
        -0.466693 1.72335 -0.286656
        0.75721 -3.43882 1.61828
        -0.125769 -6.75115 -2.97756
        -2.89763 -0.720007 -3.02138
        0.445706 4.69521 3.60783
        -1.20055 -7.20789 2.14851
        -5.10357 1.8182 3.14574
        0.32462 5.53507 0.653044
        3.77207 1.17682 -1.37678
        -1.55227 0.098794 -3.96157
        -0.716485 -2.64032 3.86924
        4.20436 -2.32816 8.76788
        -4.68978 1.89818 10.7436
        -0.272779 -0.951926 -2.65892
        4.65497 6.2494 3.07834
        -2.29688 1.45201 2.06052
        0.00231622 -3.88769 -3.84587
        -6.40059 -3.27409 3.41778
        -3.09175 1.42217 0.394138
        -3.31832 5.10173 1.51192
        1.27333 -2.74944 4.21529
        -0.222951 1.05067 2.54416
        0.550155 -5.04532 -0.896541
        0.316984 0.808784 2.75391
        -3.86369 -1.75022 -4.65463
        2.25285 0.20001 2.73699
        0.861751 6.29864 -0.605059
        1.94645 0.51657 -0.977194
        -2.06114 -2.71815 2.56434
        2.55327 6.37389 1.11705
        -5.27816 -1.55553 -2.17199
        -0.587672 1.04246 1.10574
        -4.16273 -6.92724 -0.101318
        -3.2445 -0.510028 -0.941728
        -0.0784405 0.0144234 3.41169
        -5.06718 -2.45998 3.26273
        -0.401557 5.71578 5.93627
        -2.60201 -5.48075 1.83444
        7.7605 -4.80168 0.138126
        -2.90308 1.90465 2.48305
        3.75513 -4.56448 -0.175795
        5.87755 -1.4844 3.19267
        4.13277 5.35442 -0.0159272
        -0.39057 -4.8633 0.880968
        -0.434636 1.34573 0.983748
        -4.04419 3.1146 0.403861
        -1.0083 3.15532 2.69357
        -1.33801 -0.643183 -1.02735
        1.25119 -0.584079 1.87135
        -0.512044 3.7723 1.09719
        0.0730085 -3.92976 3.50383
        2.12208 4.2976 3.71653
        3.91091 0.137002 -1.91559
        -2.18592 1.25374 0.433001
        1.40113 -3.01138 7.57677
        5.46387 2.13086 3.10322
        3.50964 -2.29789 3.81965
        -2.37102 0.84739 -0.709404
        -2.57393 2.70311 -1.38908
        -3.68417 -2.51443 -2.00153
        3.54935 -2.49585 3.01399
        0.597828 -0.95305 1.09593
        -5.33214 -3.37078 1.01825
        0.233009 -0.33153 -2.76898
        2.32728 -3.17303 -0.628745
        6.87075 -5.93047 -1.49399
        -1.14059 -5.38565 -1.21832
        -6.83114 -0.313462 0.641952
        4.01623 -4.33122 6.86752
        5.96847 -0.151157 -0.0969524
        1.82223 -1.18548 3.27212
        -1.80879 -0.749143 0.682083
        2.332 0.0852208 -0.0466137
        1.31752 4.57186 0.453322
        -1.18576 4.60902 3.32414
        -1.46293 2.53684 2.18736
        -2.24363 1.41466 4.16407
        -3.92003 0.12861 2.46307
        0.1933 -2.1232 2.31061
        0.395239 2.73792 -0.948536
        0.630367 0.907706 2.76867
        -1.11168 -2.38181 -2.05509
        -4.78551 -0.116942 -2.59061
        -0.646626 -0.987682 4.82708
        -2.9394 0.921321 -1.58906
        -2.74768 4.95433 0.689601
        4.15959 1.32718 1.71208
        -2.12059 1.4046 5.45711
        6.67275 -1.7176 -0.837227
        -1.10852 -1.37606 3.54692
        -0.0201309 -0.42199 1.34367
        -3.5434 -1.8128 1.05788
        -1.89196 -0.194248 1.02104
        3.79327 1.79519 -3.69013
        -0.0106197 -4.98014 3.03943
        -1.31077 -1.4719 3.17578
        1.91781 0.202846 1.92073
        -0.935453 3.39311 3.00005
        1.49895 -1.10089 0.409814
        0.434017 -1.92019 2.87258
        1.45851 -1.67296 3.9121
        -0.062024 -2.97295 6.5478
        1.35887 3.19838 1.81797
        -2.61824 -1.81682 1.21546
        -6.60682 1.41524 4.34456
        -2.4317 -0.573605 -4.78833
        2.97663 0.527674 2.41568
        2.38506 -5.05371 1.72908
        2.00156 2.27057 -3.03892
        6.0687 -4.23212 2.18261
        2.05035 -2.27758 5.41459
        1.57423 2.99092 3.39037
        3.64011 -1.82872 3.73025
        4.12239 -4.66906 3.39151
        0.903147 1.38792 2.13219
        2.9929 0.0333679 0.00973494
        0.72901 0.963518 3.42128
        -3.29761 -0.322649 4.00292
        -0.202475 -2.06568 5.6644
        3.83304 2.25551 3.35254
        -1.98612 0.298527 0.736832
        -0.458557 1.56519 2.17968
        6.30166 -3.75321 0.495808
        0.0301081 2.5638 7.65789
        -4.60625 -4.4461 2.26762
        -0.686596 -0.713855 5.4612
        4.56195 -4.42476 2.08399
        -3.80522 0.177763 0.550658
        -3.26374 1.77501 2.75189
        0.992683 -2.25136 0.95918
        -0.690214 -3.99032 2.79734
        -4.0675 0.844921 -2.05288
        -0.970809 3.36073 1.22074
        -3.5 5.41433 6.68819
        1.28055 4.80466 -0.561494
        4.54561 -4.06268 -0.166721
        1.88251 1.54923 0.289839
        -3.53451 5.11885 1.35063
        -1.07063 -0.745771 -1.71148
        1.24469 0.311817 -5.30613
        -0.81736 1.20978 6.06861
        -0.54378 -0.906889 -3.90475
        -3.97096 5.19796 9.11208
        -4.16609 -1.04623 -3.74536
        3.1005 -2.16574 -3.66392
        1.39577 -0.0633211 3.13629
        4.32183 2.00689 1.02767
        3.26844 1.94771 1.68409
        1.32569 1.52248 1.88144
        -4.36291 4.7214 -0.609057
        0.477452 -0.721351 -3.31628
        -1.82861 -0.70785 -1.62464
        -3.49023 1.22706 4.01591
        -0.498256 2.89792 9.76683
        0.726916 6.12037 6.94941
        0.233395 4.60822 7.09067
        -1.33383 -4.60045 6.21931
        4.42926 -1.28285 -3.54458
        -2.65433 1.80293 0.160482
        -1.76171 -1.7897 -3.23697
        3.26227 0.063444 0.276201
        -0.142844 -2.08349 -1.4433
        -0.304864 -2.80105 -3.20559
        1.76502 3.53235 8.2425
        2.03424 6.22079 5.46422
        0.520099 5.26284 2.62801
        -0.00746972 6.11668 3.35885
        -1.77589 -1.5873 -1.33927
        2.43588 1.23589 0.687653
        -0.947837 -1.00207 3.14976
        -4.16691 5.32689 2.45078
        2.41692 1.99126 2.42502
        2.94243 0.139712 2.35247
        0.474379 -2.18274 -0.466571
        -2.66296 -1.35491 1.71829
        0.599926 -2.5258 3.64933
        -0.182004 -2.45506 4.03394
        -0.22361 -2.53496 4.07153
        0.0579379 0.730504 -3.54446
        0.0346399 0.575429 -3.6075
        -0.607711 -0.139919 4.89165
        0.191443 -0.247978 5.52653
        0.135854 -0.114974 5.2946
        0.0461703 -0.133403 5.1557
        2.25131 3.23292 -0.320027
        0.902729 0.598842 -0.836525
        0.0188314 0.241385 -1.24982
        -0.0698589 0.170347 -1.05464
        1.44497 -7.35201 2.19532
        -0.336491 -6.24232 5.33418
        0.0862633 -6.75268 4.78264
        0.0350791 -7.28137 4.41661
        -0.672165 -4.26784 4.70711
        -0.512782 -4.72821 3.08103
        -0.212799 -4.64446 2.55353
        -1.05461 -4.38599 1.97239
        -0.60852 -4.81205 1.57417
        -0.247152 -5.07521 1.89116
        0.574247 6.72622 -0.295756
        -0.282028 6.69647 -0.650288
        -0.168895 6.76478 -0.718196
        1.69163 2.92022 -4.72899
        0.250513 2.50752 -4.16263
        -0.0500646 2.87364 -3.46797
        0.0264464 3.12801 -3.20906
        0.308436 0.878158 -3.43253
        1.41385 -1.61179 -3.31408
        -0.0325844 0.127958 -4.24899
        0.0475893 0.294593 -4.38077
        -0.00241554 0.375717 -4.43428
        0.855121 1.28229 0.82577
        -0.0118338 0.407678 1.12629
        0.0213273 0.31453 1.1197
        0.120486 -1.16426 -0.690507
        0.215003 -1.42168 0.176533
        -0.0928421 -1.44916 0.571127
        -0.0360227 -1.44066 0.763008
        -0.207078 4.84955 8.63324
        0.015698 4.5989 8.35688
        -0.00861558 4.51949 8.26538
        -0.0118079 0.0405238 4.95123
        0.0405877 -0.105919 5.02661
        0.194039 -0.442678 4.97161
        0.185467 -2.78149 5.05487
        -0.252325 -2.64035 -2.46178
        -0.113648 -2.25706 -2.13971
        -0.0216789 -2.1643 -2.14524
        -0.0332043 6.58687 4.44107
        0.0876697 6.42566 4.93647
        -0.102485 6.46012 4.94689
        0.369594 -0.411792 2.99307
        0.176422 -1.91011 3.22467
        -0.0133108 -2.32042 3.26379
        -0.0220656 -2.40085 3.304
        0.534662 -0.332643 3.48711
        0.222122 -0.426821 3.26741
        0.0261006 -0.59141 3.21883
        -0.0342392 -0.637316 3.248
        -0.0716898 1.2202 7.13127
        0.546181 2.23251 7.33407
        0.111098 1.44787 7.43114
        -0.0716279 1.26087 7.22536
        -0.00780838 -2.98818 -3.32383
        0.0245659 -3.05947 -3.32507
        -0.628888 -2.40002 -3.28444
        -1.27999 -2.21266 -3.53313
        -0.000372897 -4.61394 2.45596
        -2.19411e-05 -4.6135 2.45716
        -0.0285483 6.78793 -0.640361
        -0.00531092 6.79034 -0.615606
        -0.000816164 6.79096 -0.609366
        -0.000134328 6.79105 -0.608269
        -0.0636295 -2.57721 4.08438
        0.00341525 0.591203 -3.61211
        -0.010903 -2.58568 4.09312
        -0.0449081 -4.6223 2.44018
        0.0125684 -0.178667 5.11515
        -0.0296506 0.154348 -0.938915
        -0.0013153 -2.58698 4.09454
        0.0153027 -7.35577 4.30741
        0.00118185 0.608766 -3.61209
        -0.00601919 0.161822 -0.912388
        -0.0033312 -4.61754 2.4457
        0.00190274 -0.188651 5.10733
        0.00450729 -7.36947 4.2905
        -0.00014071 -2.58723 4.09473
        0.000344059 0.611407 -3.61237
        0.000558133 -7.37187 4.2906
        -0.000731849 0.16339 -0.907135
        0.00028253 -0.189906 5.1062
        6.92719e-05 0.611623 -3.61239
        -0.0328668 -5.27577 2.02663
        0.000819641 -5.31018 2.03639
        0.000688882 -5.3103 2.03506
        0.000155758 -5.30978 2.03494
        0.00742263 3.17721 -3.15022
        0.00113204 3.18291 -3.12981
        0.000113732 3.18361 -3.12609
        -0.00698532 0.376883 -4.43195
        -0.00131307 0.369712 -4.42622
        -0.000199679 0.368384 -4.4252
        0.023892 0.286628 1.06873
        0.00276611 0.284088 1.05567
        -0.000135942 0.28869 1.05361
        -8.80618e-05 0.28986 1.05312
        -0.00226979 -1.42372 0.795992
        -0.000121789 -1.41875 0.797713
        -1.22794e-05 -1.41815 0.797835
        -0.00521276 4.47545 8.27496
        -0.000843319 4.46822 8.27839
        -3.83514e-05 4.46821 8.27792
        4.95509e-06 4.46832 8.27789
        0.000112949 0.0453342 4.91411
        8.21745e-05 0.0465715 4.91359
        -0.00203561 -2.12346 -2.17329
        -0.000258556 -2.11635 -2.17832
        0.000129365 -2.11627 -2.17837
        2.64222e-05 -2.11628 -2.17823
        -0.00392983 0.0561812 4.91415
        -0.0570242 6.50051 5.0287
        -0.0106766 6.50792 5.06576
        -0.00184784 6.50832 5.07287
        -0.000200693 6.50844 5.0743
        -0.00890156 -2.41277 3.33598
        -0.00219403 -2.40678 3.34317
        -0.000323669 -2.40492 3.34459
        -0.0115985 -0.629 3.28724
        -0.00151728 -0.625407 3.29796
        -0.000162947 -0.62488 3.29925
        -0.0169397 1.21865 7.1552
        -0.00106849 1.22047 7.16503
        -7.38664e-06 1.22054 7.16532
        -0.00029805 -3.04867 -3.31889
        -0.00113995 -3.04784 -3.31872
        0.000323842 -3.04816 -3.31897
        -7.11248e-06 -4.61344 2.45729
        5.59178e-07 -4.61344 2.4573
        -5.03713e-07 -4.61344 2.4573
        -1.38029e-05 6.79107 -0.608093
        -3.8017e-06 6.79107 -0.608077
        3.25198e-07 6.79107 -0.608074
        5.16469e-05 -7.37227 4.29061
        6.56896e-06 -7.37231 4.29062
        -9.14025e-06 -2.58728 4.09474
        6.06479e-07 -7.37232 4.29061
        2.7493e-05 -0.190043 5.10606
        -7.15095e-05 0.163551 -0.906566
        4.00781e-06 -0.190065 5.10605
        8.34567e-06 0.611636 -3.6124
        -1.10068e-06 -2.58729 4.09474
        8.21268e-07 0.611632 -3.6124
        -5.68981e-06 0.163551 -0.906502
        -2.01444e-08 0.611632 -3.6124
        -4.42302e-07 -0.190068 5.10605
        7.81184e-08 -2.58729 4.09474
        -1.12663e-07 0.163555 -0.906503
        2.08821e-05 -5.30964 2.03491
        3.77914e-06 -5.30962 2.03491
        1.12183e-07 -5.30962 2.03491
        2.43813e-05 3.18373 -3.12548
        -4.47559e-06 3.18375 -3.12541
        -9.70677e-08 3.18375 -3.1254
        -1.93561e-05 0.368187 -4.42503
        -2.98702e-06 0.368166 -4.42501
        5.68184e-07 0.368163 -4.425
        -1.30151e-05 0.290049 1.05305
        -3.594e-06 0.290067 1.05304
        8.20249e-08 0.29007 1.05304
        -8.87113e-06 -1.41805 0.797845
        3.06392e-07 -1.41804 0.797844
        -2.32507e-07 -1.41804 0.797843
        1.41603e-06 4.46833 8.27789
        3.87779e-07 4.46833 8.27789
        7.02502e-09 4.46833 8.27789
        3.63884e-07 0.0451831 4.9143
        2.53742e-06 0.0451884 4.91429
        2.56816e-05 0.0451851 4.91427
        4.9204e-06 -2.11628 -2.1782
        1.6128e-07 -2.11628 -2.1782
        1.72963e-07 -2.11628 -2.1782
        -2.32645e-05 6.50846 5.07447
        1.32717e-06 6.50847 5.07449
        -8.4302e-07 6.50847 5.07449
        -3.72971e-05 -2.40459 3.34474
        -3.23055e-06 -2.40456 3.34476
        -3.80313e-07 -2.40455 3.34476
        -7.51466e-06 -0.624825 3.29938
        -6.79658e-07 -0.624823 3.29938
        -9.24608e-08 -0.624822 3.29938
        1.93949e-05 1.22054 7.16528
        1.41213e-06 1.22054 7.16526
        2.97285e-07 1.22054 7.16525
        1.02188e-08 -3.04892 -3.31895
        -1.29903e-06 -3.04892 -3.31895
        -3.70755e-05 -3.04889 -3.31894
        4.25396e-08 -4.61344 2.4573
        -1.32246e-10 -4.61344 2.4573
        -8.53385e-09 6.79107 -0.608074
        8.84544e-10 -4.61344 2.4573
        -8.25463e-10 6.79107 -0.608074
        2.18563e-09 6.79107 -0.608074
        -3.35556e-07 -7.37232 4.29061
        2.46847e-08 -7.37232 4.29061
        2.99445e-09 0.611632 -3.6124
        1.63194e-07 0.163554 -0.906501
        -1.02033e-10 -7.37232 4.29061
        6.0768e-08 -0.190067 5.10605
        -1.81809e-08 -2.58729 4.09474
        -1.90334e-08 0.163554 -0.906502
        -3.2473e-08 -7.37232 4.29061
        1.32522e-10 0.163554 -0.906502
        2.70377e-08 0.163554 -0.906502
        -3.15333e-10 -0.190067 5.10605
        4.26882e-10 0.611632 -3.6124
        -1.3935e-10 -2.58729 4.09474
        3.36108e-12 -0.190067 5.10605
        -7.63176e-10 0.611632 -3.6124
        -8.80317e-10 -0.190067 5.10605
        3.99009e-10 -2.58729 4.09474
        2.02155e-08 -5.30962 2.03491
        -5.94864e-11 -5.30962 2.03491
        -2.92708e-09 -5.30962 2.03491
        1.2103e-07 3.18375 -3.1254
        -2.94563e-09 3.18375 -3.1254
        -1.13261e-10 3.18375 -3.1254
        1.95367e-09 3.18375 -3.1254
        -1.45553e-09 -1.41804 0.797844
        -6.79861e-08 0.368164 -4.42501
        -1.11085e-09 0.368164 -4.425
        -3.62054e-11 0.368164 -4.425
        1.26204e-09 0.368164 -4.425
        6.05718e-08 0.29007 1.05304
        -3.42531e-09 0.29007 1.05304
        6.14634e-09 0.29007 1.05304
        3.50538e-08 -1.41804 0.797844
        7.2098e-11 -1.41804 0.797844
        -1.02626e-10 -1.41804 0.797844
        -4.20748e-09 4.46833 8.27789
        1.21213e-10 4.46833 8.27789
        -3.6953e-10 4.46833 8.27789
        -1.20879e-09 0.0451845 4.91429
        -2.52263e-10 0.0451845 4.91429
        -3.36815e-09 0.0451845 4.91429
        -3.42924e-08 0.0451846 4.91429
        -2.43104e-08 -2.11628 -2.1782
        6.78029e-10 -2.11628 -2.1782
        -1.39126e-09 -2.11628 -2.1782
        7.85139e-08 6.50847 5.07449
        -2.46989e-09 6.50847 5.07449
        4.18546e-09 6.50847 5.07449
        1.03067e-07 -2.40455 3.34476
        -5.42635e-09 -2.40455 3.34476
        1.18705e-10 -2.40455 3.34476
        9.63468e-09 -2.40455 3.34476
        -5.93723e-08 -0.624822 3.29938
        3.56272e-09 -0.624822 3.29938
        2.42289e-11 -0.624822 3.29938
        -3.48026e-09 -0.624822 3.29938
        -1.49547e-08 1.22054 7.16525
        -1.86372e-07 1.22054 7.16525
        1.16079e-08 1.22054 7.16525
        -4.43638e-11 1.22054 7.16525
        5.98823e-09 -3.04892 -3.31895
        1.12211e-10 -3.04892 -3.31895
        -2.89308e-09 -3.04892 -3.31895
        -2.12369e-08 -3.04892 -3.31895
        -4.08191e-08 -4.61344 2.4573
        4.97151e-07 -4.61344 2.4573
        8.65523e-07 -4.61344 2.4573
        4.20023e-08 6.79107 -0.608074
        1.4045e-07 6.79107 -0.608075
        7.66022e-06 6.79107 -0.608082
        9.6374e-06 -4.61346 2.45726
        4.69666e-05 6.79106 -0.608137
        2.28586e-07 -7.37232 4.29061
        -2.91339e-08 0.163554 -0.906501
        -1.47146e-06 -7.37232 4.29061
        1.44456e-06 0.163555 -0.906504
        -1.95976e-05 -7.3723 4.29061
        2.17477e-05 0.163551 -0.906516
        -1.34067e-08 0.611632 -3.6124
        -1.08845e-07 -0.190067 5.10605
        3.21555e-08 -2.58729 4.09474
        -1.59766e-07 0.611632 -3.6124
        -3.05879e-07 -0.190067 5.10605
        -1.06985e-05 -0.19006 5.10605
        -2.86299e-06 0.611632 -3.6124
        2.07598e-07 -2.58729 4.09474
        -2.45665e-05 0.611635 -3.61239
        3.89786e-06 -2.58728 4.09474
        3.93089e-05 -2.58726 4.09474
        -7.67657e-08 -5.30962 2.03491
        -6.84035e-07 -5.30962 2.03491
        -7.8641e-06 -5.30963 2.03491
        -6.05421e-05 -5.30968 2.03492
        -1.3521e-07 3.18375 -3.1254
        2.70152e-08 3.18375 -3.1254
        1.42366e-06 3.18375 -3.12543
        -4.4032e-08 -1.41804 0.797844
        3.71926e-07 -1.41804 0.797843
        1.68694e-06 -1.41804 0.797843
        9.19529e-08 0.368164 -4.42501
        -1.23415e-07 0.368164 -4.425
        6.66034e-06 0.36817 -4.42501
        -2.20002e-08 0.29007 1.05304
        2.48802e-07 0.29007 1.05304
        6.75763e-06 0.290062 1.05304
        3.77339e-05 0.289998 1.05307
        -9.01217e-07 0.0451833 4.91429
        -8.79515e-06 0.0451876 4.91428
        5.50114e-10 4.46833 8.27789
        -4.96274e-08 4.46833 8.27789
        -7.8371e-07 4.46833 8.27789
        -3.91496e-06 4.46833 8.27789
        -1.60822e-08 0.0451846 4.91429
        1.65971e-08 -2.11628 -2.1782
        -2.52223e-07 -2.11628 -2.1782
        -1.21764e-06 -2.11628 -2.1782
        -1.10121e-05 -2.11628 -2.17821
        -5.89412e-08 6.50847 5.07449
        1.10529e-06 6.50847 5.07449
        2.86832e-06 6.50847 5.07449
        6.58818e-05 6.50846 5.07443
        -4.16094e-08 -2.40455 3.34476
        1.03824e-06 -2.40455 3.34476
        1.11177e-05 -2.40457 3.34475
        7.15011e-08 -0.624822 3.29938
        2.90155e-07 -0.624822 3.29938
        1.4784e-06 -0.624823 3.29938
        -6.56368e-06 1.22054 7.16526
        1.46468e-07 1.22054 7.16525
        -5.57021e-07 1.22054 7.16525
        9.87063e-06 -3.04891 -3.31895
        6.76568e-07 -3.04892 -3.31895
        4.97445e-08 -3.04892 -3.31895
        9.95734e-05 -4.61361 2.45687
        0.000328799 6.79102 -0.608581
        0.000992513 -4.61501 2.45289
        0.00216985 6.79077 -0.611296
        0.0126344 6.78946 -0.624041
        0.012447 -4.6213 2.43556
        0.000234974 0.163516 -0.906702
        -0.000174368 -7.37217 4.29061
        0.00221225 0.162992 -0.908555
        -0.00171776 -7.37119 4.29046
        -9.19111e-05 -0.190006 5.1061
        0.0145788 0.158849 -0.921054
        -0.000716908 -0.18959 5.10648
        -0.00506258 -0.185965 5.10954
        0.0511278 0.152887 -0.975547
        -0.00978648 -7.36512 4.29309
        -0.0216829 -7.3347 4.34398
        -0.000155135 0.611573 -3.61238
        0.000434114 -2.58715 4.09468
        -0.0258586 -0.16267 5.12815
        0.00392971 -2.58661 4.09416
        -0.000675902 0.610741 -3.6123
        -0.00172204 0.603371 -3.61185
        0.0275804 -2.58334 4.09038
        -0.000348526 -5.30998 2.03498
        -0.00113897 -5.3107 2.03545
        0.00542517 -5.30352 2.03605
        -5.00572e-05 3.1837 -3.12564
        -0.000391496 3.1834 -3.12716
        -0.00274498 3.18157 -3.13607
        -0.0165789 3.164 -3.17446
        1.11948e-05 -1.41808 0.797844
        3.78615e-05 -1.41832 0.797803
        0.000493179 -1.42008 0.797434
        0.0104162 -1.43083 0.789251
        6.64773e-05 0.368237 -4.42507
        0.000505713 0.368747 -4.42549
        0.00318927 0.372018 -4.42802
        0.00975868 0.381567 -4.43667
        0.000154084 0.289506 1.05327
        -0.000305438 0.286883 1.05433
        -0.00946217 0.281698 1.05913
        -5.74214e-05 0.0452184 4.91423
        -0.000186654 0.045642 4.91391
        0.000821616 0.0496666 4.91315
        0.00874642 0.0613948 4.92188
        -8.95723e-07 4.46828 8.2779
        0.000225881 4.46814 8.27805
        0.00229076 4.46968 8.27813
        0.00110048 -2.11766 -2.17711
        -6.7036e-05 -2.11628 -2.17828
        -0.000112664 -2.11624 -2.17845
        0.000112827 -2.40468 3.34471
        0.000886276 -2.4055 3.34421
        0.00478111 -2.40947 3.34091
        0.0146505 -2.41426 3.32624
        0.000649049 6.50841 5.0739
        0.00453135 6.50817 5.07063
        0.0248309 6.50648 5.05513
        4.20776e-05 -0.624839 3.29935
        0.000504708 -0.625017 3.29894
        0.00439734 -0.626455 3.29506
        0.0235251 -0.633305 3.27163
        0.0407648 1.21709 7.14116
        0.00480671 1.22005 7.16301
        0.000179255 1.22054 7.16534
        -2.46547e-05 1.22054 7.1653
        -0.00751915 -3.05198 -3.32069
        0.00142186 -3.04741 -3.31865
        0.000643503 -3.04835 -3.31882
        0.000102046 -3.04883 -3.31893
        0.0716644 6.78218 -0.669544
        0.310905 6.72636 -0.750229
        0.109044 -4.62394 2.4755
        -0.116656 6.69277 -0.339346
        0.304782 -4.71335 2.65663
        0.771905 -4.60835 3.76113
        -1.45467 -5.22373 3.41654
        -1.52369 6.60331 -0.885579
        0.0699747 0.207932 -1.17098
        -0.233895 0.207577 -1.14527
        -2.00296 1.87564 -0.234377
        -0.0760116 -0.102572 5.20662
        -0.223679 -0.19209 5.41096
        -0.0749638 -7.12633 4.53199
        -0.00226747 -6.21285 5.11363
        0.131213 -0.154775 5.39749
        1.06256 -7.07189 5.26588
        -0.00991463 0.573344 -3.6122
        0.128963 -2.56305 4.076
        0.286438 -2.49494 4.07195
        -0.0734077 0.639512 -3.58361
        -0.170427 -2.4258 3.87069
        -0.00802076 0.815407 -3.4801
        -0.507678 -0.00913908 -3.54611
        -0.494509 -3.25 3.45347
        0.10569 -5.20538 1.99043
        0.431849 -4.92831 1.72753
        0.750681 -4.74882 1.58306
        1.27742 -4.03632 2.74711
        -0.00784319 3.04418 -3.27399
        0.0307634 2.6308 -3.87227
        -1.27231 2.49722 -4.44745
        0.0793477 -1.44785 0.69785
        -0.00221699 -1.44935 0.419278
        -0.404525 -1.32744 -0.09087
        -0.025223 0.344101 -4.41571
        0.00700251 0.275918 -4.36483
        -0.187976 -0.35705 -4.08108
        -0.0319847 0.296656 1.09096
        0.0597873 0.288195 1.14873
        -0.212105 0.693469 1.0657
        -1.1851 1.45538 0.884306
        -0.00486646 -0.0216589 4.99585
        -0.106008 -0.0963247 4.9475
        -0.432052 -1.41313 5.11274
        0.0079827 4.49069 8.26717
        -0.00304471 4.55396 8.28671
        0.00280766 4.64817 8.45714
        0.357629 4.87424 8.46844
        0.00480977 -2.1379 -2.1635
        0.0588415 -2.19551 -2.12663
        0.115261 -2.39573 -2.24906
        0.492978 -2.58091 -2.8242
        0.0304921 -2.37787 3.27673
        -0.0231857 -2.29315 3.28827
        -0.308954 -1.30192 3.00828
        0.0998882 6.48413 4.98614
        0.0147301 6.43104 4.94601
        0.0209678 6.44698 4.79589
        -0.0264717 6.63403 3.75671
        0.0227664 -0.629504 3.22754
        -0.124593 -0.508847 3.23962
        -0.310765 -0.378655 3.36725
        -0.545623 1.74271 7.69709
        0.0267531 1.29838 7.31803
        0.0805055 1.23518 7.16053
        -0.0407483 -3.05863 -3.33015
        0.233281 -2.7576 -3.29368
        1.14196 -2.06166 -3.34777
        2.98135 5.15954 -0.287009
        -1.98157 -0.557626 2.3948
        -1.39226 -0.0993259 2.18297
        -0.136558 0.367834 -2.29913
        1.84353 -5.9175 4.71561
        -3.32456 5.0793 2.92992
        -2.60378 1.78037 -2.05235
        -1.23595 -4.39746 4.03622
        2.25618 -3.4771 7.14998
        -0.110935 0.369565 3.97337
        -2.42708 0.699833 0.87192
        1.89967 -0.586461 0.294722
        -3.99681 -7.34534 -0.951355
        -7.05606 -3.9808 3.67388
        -6.49108 -0.150152 4.94033
        1.90089 0.133428 -3.13882
        1.43272 1.44083 1.43477
        -0.982979 -2.28132 2.07005
        -1.72899 -1.87826 1.07189
        3.17977 -2.33284 4.62645
        -1.87199 2.02493 1.39858
        -0.245623 -2.01258 2.09308
        0.882666 -0.485584 2.46018
        2.38237 4.75225 7.14317
        1.01228 3.5738 -1.5838
        3.04368 5.8472 0.0294255
        0.585867 -0.178397 -0.474678
        0.939476 -0.850337 -0.963296
        0.779999 -1.22948 -1.82791
        -2.28542 3.59156 -0.987026
        -0.595196 -1.6611 -3.31569
        0.568011 -2.13108 -5.65246
        -2.85152 -1.02357 3.40804
        -4.46041 1.35323 3.26868
        -2.73929 2.70715 -0.556785
        4.07275 4.24881 4.01995
        1.05397 -3.12077 5.06922
        1.58734 -2.46391 7.22109
        -1.24971 -1.63702 -6.27869
        -0.328298 5.08936 7.21036
        -2.88104 6.39443 8.73277
        -1.33453 -0.375111 3.72624
        1.37128 -2.44844 1.15371
        0.666816 0.300799 -1.11798
        0.662891 -2.69727 -2.82236
        -0.0782866 -0.0316873 3.06309
        -0.226969 -0.512408 2.93386
        -4.1819 1.72415 0.860871
        0.0907588 5.35773 3.66824
        -1.23553 6.17894 1.8633
        1.64327 2.51467 5.03486
        -1.22756 -0.568714 2.69788
        -2.76199 1.89633 0.360108
        -2.60361 0.827088 3.09596
        -1.6717 2.08077 1.46697
        1.01875 0.957663 7.34967
        1.06596 1.8659 5.54684
        2.16076 -2.44055 -7.62304
        -0.761551 2.11022 4.50773
        -2.02893 -2.64105 5.19872
        -3.80638 2.96501 7.0252
        -0.361052 -2.80751 1.02586
        1.61796 -2.20081 -3.48979
        1.47871 -1.41241 -3.24181
        -1.70232 1.50663 2.33646
        1.21872 2.26881 0.726401
        -4.10947 -2.37652 2.9003
        -3.08211 -0.293535 -0.181364
        -6.49365 -1.16108 3.50316
        -1.67569 7.27939 2.18371
        2.07252 -1.81795 1.48431
        -1.20289 -2.8787 4.39099
        -0.421281 3.75662 1.12849
        -0.85494 3.7294 -0.169527
        3.47118 -4.47811 5.53008
        -0.563972 -0.473709 -0.720546
        -6.84857 -3.55299 0.154416
        -0.699613 1.77018 1.50008
        -0.542581 -4.68684 6.15782
        -8.03719 0.99441 0.949806
        2.93278 -3.51316 -3.73957
        -2.5033 1.38271 -1.47039
        -4.29222 -0.824356 -3.65515
        2.42232 4.33774 2.50791
        0.536585 1.45154 1.52253
        -5.393 -3.86054 0.516608
        -8.45208 0.466656 2.10814
        -5.80502 -0.86733 1.53607
        -1.41183 3.96556 9.43544
        3.18548 -1.09237 2.07444
        2.9839 -2.62378 -1.43978
        -0.373374 -0.626185 0.788678
        0.782248 -3.09837 2.89641
        -3.45218 -0.636643 0.561176
        -1.42487 -1.42197 -4.63727
        -5.44225 0.83703 0.278344
        2.54032 -0.0620384 6.7688
        0.520226 -0.878205 -0.218074
        0.427154 2.92939 0.906238
        3.73263 1.12653 0.849247
        -0.337437 2.58061 2.25946
        1.72886 2.59277 2.19421
        -1.59117 -3.64598 -0.345519
        2.96547 1.24484 6.56872
        -3.52401 -0.911975 2.93261
        -1.07145 2.90788 4.13895
        1.45088 -1.1832 6.89805
        2.16044 1.33118 2.47825
        0.00365029 -2.05972 2.0612
        2.63784 5.95171 3.36376
        4.16195 -1.87267 0.978593
        -1.25352 3.77192 3.50064
        -1.43908 -4.57328 2.47104
        -0.825675 3.70983 2.90972
        0.178338 -2.04357 0.133048
        -1.9052 -2.12263 2.88449
        -0.432349 -1.50931 1.74139
        -1.79216 -1.70387 -2.34379
        1.88456 0.690607 3.43557
        3.08535 -5.27658 3.40355
        6.27628 0.921266 4.34579
        3.67909 2.27769 8.74964
        1.28827 1.97246 1.53522
        0.506547 4.6335 -0.167969
        -0.0101605 3.39507 2.00097
        4.14731 0.504023 -1.03984
        -0.477283 2.47334 1.51943
        0.116166 -1.72823 5.5482
        -0.429527 -1.05064 -0.761483
        0.838311 -4.34355 1.6119
        -0.517689 -3.76514 0.800694
        -1.25979 -0.873602 -3.87033
        -3.98277 -1.25772 -3.00589
        1.62932 -0.388877 -0.226537
        3.89276 -4.06009 4.39296
        -3.63233 4.08447 -2.72659
        -0.144703 -2.12166 -0.774112
        -2.17175 -2.88216 2.04152
        1.73777 -5.94746 7.83278
        1.15895 -3.13652 -5.08342
        -5.0208 0.0477614 8.54554
        0.360344 -3.71815 1.1539
        2.39086 0.225119 0.0688889
        -0.388291 -1.31336 2.72491
        0.632463 0.377167 -0.393113
        0.607591 -5.14944 5.52194
        0.670208 2.06506 1.39471
        1.58134 -0.488988 4.97234
        0.0977888 -2.39103 0.945492
        -5.15519 -0.902631 -3.04106
        -5.54621 0.195534 -8.25305
        0.162385 1.20638 -1.50477
        -1.34593 -2.97595 5.87207
        -3.12383 -4.76131 -0.220788
        -1.47839 -10.441 0.479441
        1.30954 3.26677 2.79608