<?xml version="1.0" encoding="UTF-8" standalone="no" ?>
<VTKFile byte_order="LittleEndian" type="UnstructuredGrid" version="0.1">
  <UnstructuredGrid>
    <Piece NumberOfCells="0" NumberOfPoints="15094">
      <PointData>
        <DataArray Name="velocities" NumberOfComponents="3" format="ascii" type="Float32">
        -4.9724 2.82475 1.7676
        -0.240379 5.1345 -1.92975
        -3.38735 1.50029 -0.800936
        -1.72467 0.836607 2.39734
        -3.28932 -7.3498 -2.08653
        2.33852 3.6331 0.445733
        2.65743 1.63461 8.02582
        -1.74666 -1.37119 0.943585
        -0.588612 -6.54522 2.83667
        -1.1847 6.50396 7.14458
        -1.83853 2.80942 2.65106
        3.83294 -3.2138 -2.46707
        1.42397 -0.0307123 -2.66457
        5.48756 -0.899263 -3.44554
        -2.19435 0.318602 -2.81189
        1.52877 0.745379 -3.06891
        -0.516303 -1.94585 -1.5718
        0.271924 -1.81778 3.74784
        -4.48086 3.49853 -5.85024
        2.28366 -5.45142 2.26711
        -3.52825 -0.520757 5.73487
        -2.72862 -5.22237 -0.781041
        -0.294703 5.53893 2.27502
        2.95728 2.19381 1.72047
        -6.81599 -0.526474 1.41704
        -3.01519 5.04635 -2.94669
        -1.73638 -4.26913 -1.69962
        2.74446 0.280877 4.64227
        -2.66609 2.49041 -4.34771
        1.5633 -1.54053 2.62739
        2.69918 3.72658 -1.74031
        3.41531 -0.690981 4.62441
        -5.08612 -2.22635 0.100302
        -2.05047 0.326213 -3.21845
        4.71995 -1.09902 -1.25396
        4.89246 1.9519 3.40608
        5.60793 -1.63593 -1.3696
        2.11013 0.55475 -2.48896
        3.27542 2.16046 -0.288904
        1.79768 -0.939199 -2.09934
        -1.06542 2.45184 -1.54963
        -3.30662 -5.0418 2.57372
        -1.31573 -4.50932 2.19273
        -0.326991 -5.90712 -0.703771
        -3.13491 3.92747 1.28746
        -7.60228 3.02214 -4.03558
        -6.71583 0.298764 2.82897
        2.86457 1.33112 -4.01176
        2.56714 0.561672 -1.11856
        5.12443 0.723649 5.43176
        0.439937 -0.511228 -0.683757
        0.948697 -0.231036 -0.770478
        4.32195 -5.08384 2.65981
        6.15992 3.05334 1.12383
        0.136837 -1.68546 0.919485
        1.94639 6.40054 -4.69011
        0.227022 3.37683 -1.47926
        3.95835 -0.227937 2.62681
        -2.5543 -3.00073 -6.70985
        6.80089 0.448702 -0.128207
        6.59314 -1.1394 -1.99836
        -4.71955 0.478212 -0.0622559
        4.00946 2.38585 -0.785919
        -6.31688 -0.236958 1.67846
        -2.33693 -1.76126 0.636941
        4.59728 -0.866556 -1.28203
        4.52525 7.89186 -2.82376
        -2.95932 0.576094 -0.239016
        1.05714 -0.614692 -0.45292
        4.83974 -8.84721 1.941
        8.85191 3.97054 -2.75181
        -1.48742 -4.86428 2.15226
        -5.37601 -2.14758 2.25658
        -0.059656 3.53617 1.73928
        -3.5646 -0.665611 0.950579
        6.50468 7.20416 4.51169
        0.30039 0.459028 -5.7028
        -2.95254 -1.41138 0.508533
        -6.70994 4.10316 8.49995
        -0.0357849 1.58897 -0.758879
        -0.0427392 2.99025 2.91179
        8.88185 3.40637 -1.55116
        5.02172 -5.43777 5.81405
        2.7292 -0.0416062 0.933835
        -4.48351 -0.309134 -3.37205
        -4.1874 5.21487 -0.0240706
        -0.59076 0.0667659 0.456482
        3.14309 3.21654 -0.315493
        4.03014 1.60956 -0.192438
        -1.62884 -0.620213 -6.87941
        -1.79383 1.19556 -2.88882
        1.01388 -3.40758 6.40512
        2.02681 -3.49695 -0.654112
        -2.36788 -0.624909 0.466139
        2.65498 6.47454 -0.380844
        1.80983 0.883284 1.50268
        1.49205 -1.03839 1.15453
        0.358295 -0.918938 1.43926
        7.95481 -0.887431 -4.18265
        -6.28697 -1.61903 -5.76379
        0.46105 6.44484 -2.7379
        3.98702 -0.917349 -1.00493
        4.93108 -3.35342 2.71796
        4.06228 1.45486 5.31623
        -1.23497 -1.38928 -9.41342
        6.89035 -2.6546 -1.91532
        -0.370532 -0.0833873 -0.687892
        -0.260052 1.74205 -0.541817
        -1.18919 4.13473 4.46706
        2.04846 -3.58825 0.82157
        -3.1469 1.07094 8.08568
        -3.62121 0.238222 -1.03992
        2.49623 2.70554 -0.859237
        3.2027 1.77888 0.0494462
        1.52474 2.00984 -5.90286
        -0.0151062 -2.64084 1.44201
        -4.50174 1.30209 6.13587
        1.72754 2.00862 5.17125
        -4.92354 -2.8982 2.37832
        1.02679 -0.526537 7.79927
        -0.641005 3.22925 1.69192
        5.26041 1.9451 1.27774
        2.19648 2.18618 2.03398
        -1.9243 -2.72564 3.00242
        -0.281407 -3.62447 -3.57352
        2.42506 1.07568 -5.34323
        3.25387 2.50748 2.04685
        2.52786 -4.09494 7.78283
        5.33447 -0.492264 -0.131945
        -3.816 -6.96458 -3.25666
        -2.10274 -0.779493 -1.28217
        0.200718 5.24661 -3.2682
        4.96434 -3.29717 8.64495
        -6.99781 7.09997 2.82353
        -1.16191 3.9741 -0.322232
        -2.19456 2.98715 2.92026
        7.49226 3.22262 0.45471
        -5.73837 1.15051 -7.3109
        1.10098 5.17976 0.573862
        6.24499 3.27871 -2.75134
        -0.595082 -4.59721 4.28245
        5.98577 2.97964 0.265621
        6.95919 0.162375 0.95539
        -2.26353 -5.06772 1.10227
        -1.96132 -1.03596 1.68538
        1.93146 3.41875 -2.42662
        2.77285 0.625973 1.45394
        -3.94815 -4.80049 -1.91626
        -1.90297 1.99245 4.65145
        -2.75869 -2.3808 -7.16588
        2.97782 2.80436 -3.37081
        -5.31887 -2.42776 -4.45676
        1.95159 -2.68583 1.97523
        -3.34053 1.70539 1.30365
        -1.00859 1.30937 3.14125
        5.71548 -1.25494 2.90446
        0.939455 -3.71427 1.13379
        -2.33977 2.13935 4.63427
        3.61243 2.42024 1.21369
        1.95297 3.78595 -5.30331
        3.22035 -2.06759 0.712255
        5.15257 -8.20973 -4.84303
        0.702736 -1.60187 1.79689
        1.29111 -5.95817 -0.974294
        3.08113 1.67657 -6.57162
        0.564998 1.73218 -3.94154
        0.452895 -0.166004 5.39374
        -0.498583 -1.70768 0.429306
        9.25349 5.99896 3.19093
        6.34733 -7.32923 4.11551
        0.118672 -0.271207 0.41824
        -0.180746 0.72942 -6.7432
        2.5321 1.54043 -4.22718
        3.5674 -3.05742 -1.10648
        2.3011 0.445325 -2.80622
        6.94864 -11.5788 -0.142336
        1.53423 -2.38191 -1.13858
        2.43035 -2.8936 1.29539
        2.43767 -3.45176 0.702602
        -0.0441211 -1.38809 1.47148
        0.542242 -4.60994 2.13903
        2.00072 5.44013 0.872606
        -1.10925 -4.07945 -0.905696
        2.49059 3.63044 -1.13668
        -3.6897 3.6555 -3.33777
        -1.19416 2.76052 -1.8523
        -0.409097 -0.141258 2.09677
        1.23317 1.01225 2.48585
        0.466771 0.574896 4.81974
        -1.22706 -0.260311 0.302145
        -2.71358 -2.04103 4.34244
        0.46737 -5.8699 -4.16555
        -1.48659 -0.965947 4.49846
        0.439305 -3.0418 3.11441
        -3.62828 -9.6247 2.15117
        -2.77239 -5.18037 -1.5944
        1.20024 0.687434 -0.679186
        3.1626 -4.19975 -2.082
        3.45088 -2.63977 -5.08978
        -3.77636 -6.4307 3.14179
        7.38191 -0.900736 4.03752
        -3.53995 1.41312 5.71179
        -0.887722 1.63661 -2.1479
        2.19465 0.320838 -0.943434
        -1.0688 -1.34265 -1.45066
        0.334788 -0.780516 4.02834
        3.80326 4.11262 0.38777
        2.58337 2.24969 -2.3528
        0.364207 3.13029 -7.23586
        -1.13724 -2.50305 3.14162
        3.94809 1.79505 -3.40686
        -2.79513 1.88416 3.00164
        -1.0948 8.90496 0.161908
        1.50889 -1.57242 3.98551
        -3.19155 -1.23133 -0.593771
        -2.92234 3.31785 0.384584
        -0.895958 3.87791 -3.83008
        -1.35814 -3.31138 0.350917
        -1.96326 1.26109 3.53332
        2.06501 2.76608 0.621829
        0.384077 -3.83288 -2.96894
        -0.687065 -4.33097 -0.171448
        -1.52442 4.89365 5.7789
        1.59942 -1.38234 -3.25942
        0.737497 -5.61467 3.00673
        3.47283 -4.04766 2.56839
        0.778406 -2.99041 -6.45643
        -2.06879 -3.30693 -1.49559
        2.12486 -6.79021 -1.59121
        3.23473 2.64076 1.38271
        1.82879 -0.0479073 4.38565
        6.32972 -1.46307 8.74507
        2.03317 0.297991 -2.48676
        -1.1323 -4.43576 2.42698
        5.26158 0.203155 -3.18463
        0.441885 -6.15121 -4.15444
        1.76488 7.26649 -8.07346
        -2.8704 -0.81579 1.68391
        5.19871 5.95123 -3.94548
        2.92937 1.17086 -4.48528
        2.07145 6.40904 1.95142
        8.06119 2.21422 -0.587357
        3.07974 -6.36467 2.0928
        5.82482 2.66762 3.25259
        -7.47179 -1.81998 1.05182
        0.360823 2.25091 1.44737
        -4.01032 0.763642 -0.893716
        2.192 0.651228 4.22094
        -2.93305 0.575168 3.70276
        -1.55499 -3.25012 2.79394
        -2.60714 -3.95579 3.2241
        -1.50377 1.4773 -1.72018
        -4.34747 2.19276 3.5994
        -4.45765 0.619694 2.68425
        -0.651559 3.50759 -4.93098
        -1.51401 -5.73545 7.79045
        -2.2033 -1.86749 0.145422
        -1.52794 -0.680234 1.52622
        -0.710953 -0.929582 -5.34252
        -2.47732 0.607764 -2.75867
        -0.546516 -3.62019 3.39349
        -2.10836 -3.54226 -4.49605
        -1.59251 0.205353 -3.83437
        -1.77519 5.14435 4.37619
        -0.40518 -2.38087 2.09684
        2.11322 -2.33327 -0.026579
        -1.11025 -3.0402 0.96172
        4.17972 1.87677 8.72829
        3.0082 2.9377 6.79116
        3.27176 3.11926 -0.671376
        0.136177 -1.55967 1.62128
        1.72976 -1.99807 1.57131
        4.76061 -8.92981 0.688252
        5.06323 -3.62377 1.16536
        -2.41098 4.43523 -1.39111
        -2.47749 3.38754 0.999975
        -4.94321 -2.16838 1.75692
        -1.36731 -0.890655 -0.70772
        -0.684727 -1.36901 4.48616
        0.196505 -5.69926 -3.50348
        -1.00743 0.63889 -1.66749
        -0.857565 -0.627699 2.70136
        -3.05802 2.16967 0.136886
        -1.35318 -0.752253 -2.70537
        -1.51722 1.12929 0.504472
        -1.52449 0.610232 6.12991
        -0.545872 0.709166 -2.08071
        -0.329246 1.17188 0.702641
        1.09529 -7.1122 -3.0819
        -1.12244 1.26324 -0.173557
        -0.317644 -1.47391 1.73418
        7.86417 0.337259 -2.48807
        -1.84168 -1.10395 2.13713
        3.89022 -2.08608 -0.117232
        0.643485 5.13576 4.43733
        -7.65548 0.49259 -1.54507
        0.945707 -1.22819 2.38103
        4.6832 0.98218 3.12901
        -1.26847 1.61142 -0.659083
        5.25494 1.88394 -3.19753
        2.06418 4.23251 3.54531
        4.26959 1.67503 1.00974
        -2.72225 0.685333 -0.465893
        -6.65711 -0.690922 2.14855
        1.82732 0.940942 0.104912
        -5.20996 6.40109 -1.52861
        6.2927 -2.37267 -0.707369
        3.21612 0.379329 -2.63571
        1.57214 -4.88145 -2.42938
        -4.02718 -1.88514 4.87268
        -3.46812 -1.75383 -2.568
        3.51087 1.13477 -2.55931
        0.542708 -2.60727 3.61466
        1.52927 2.58134 -1.90984
        -7.07703 2.29552 0.426405
        2.38485 3.34463 1.88786
        2.22071 -5.33602 -4.22505
        1.74232 -0.0341495 2.34145
        1.59843 2.30453 -1.57742
        0.364185 -2.14547 -2.25368
        -6.23334 -0.956175 -2.6995
        2.73894 -3.40916 -1.60751
        -3.60986 -7.35736 -4.0956
        2.57281 -3.66895 -2.53706
        -6.18858 -6.99519 3.33343
        4.70872 -3.36958 -5.99995
        -0.511626 -4.61234 -1.99816
        -1.8554 -6.84451 -1.37516
        -0.438188 6.27386 1.41421
        -0.359337 2.18518 -0.395913
        -1.6646 2.60496 -5.64967
        -1.27648 4.00247 1.54845
        0.948722 -1.54513 2.94777
        4.53431 1.09493 -0.86888
        2.35943 -0.584049 -0.922715
        3.03967 0.584811 -7.56209
        5.74637 5.29877 5.02574
        -1.09188 -3.87822 -2.87683
        2.11138 -2.80803 -1.04912
        -0.625482 0.609175 2.50996
        -5.51508 1.56921 3.51901
        -0.378804 -2.47578 -2.48659
        0.905646 3.50472 2.60354
        -5.98556 -1.64109 0.446179
        5.23047 -3.62609 0.558198
        0.860333 3.22508 -4.64125
        4.19167 1.50448 7.90541
        1.91286 -1.18153 -1.36403
        7.12644 -0.787718 -3.0111
        -9.167 0.0631898 0.703342
        2.53948 1.69165 -0.672046
        1.83548 -3.97553 1.68103
        -4.22453 7.16503 -4.86911
        1.85058 2.72511 -0.417837
        1.9015 -5.20234 -3.95294
        -1.07355 -0.949858 -3.77268
        -4.96655 -2.70804 1.43459
        -8.90993 1.786 7.29405
        7.90537 1.24906 1.27789
        2.46212 6.43087 -1.89664
        1.69143 -0.634591 2.40798
        -3.2694 -0.903111 -1.9203
        0.183835 1.97916 -4.68815
        -1.39401 -3.34879 12.2022
        -3.84744 0.0811306 1.35395
        -0.0684794 1.11741 -3.53596
        1.05852 -0.61071 3.39149
        2.17049 1.10406 -5.81898
        7.29534 4.09013 -5.12343
        -3.93628 1.33674 6.69396
        4.81316 -1.25873 1.40661
        2.08802 -0.25318 5.80189
        4.67317 -4.66675 0.32809
        3.49155 -6.47501 1.65926
        -2.05437 1.48419 1.86118
        -1.54331 -5.23665 -2.84548
        -5.80093 2.73412 5.13761
        -3.18166 -4.06717 -2.59288
        3.12062 -6.14413 0.128222
        4.05145 4.28968 2.87386
        0.42639 7.96209 -4.36664
        -3.89589 -2.51503 -1.09522
        0.949112 0.304253 1.76332
        3.38679 2.7785 -1.79307
        -1.15497 -2.29894 -2.01289
        -6.02636 2.6419 -2.49919
        -1.0153 -2.13407 4.98444
        -5.86399 2.10253 0.602229
        1.84349 -1.04574 4.05816
        -0.84164 0.388385 -1.38974
        -6.87705 -7.36545 -2.361
        0.774554 -3.76366 1.87525
        1.60524 3.94974 -0.308786
        -2.33441 -3.88472 4.13584
        3.36773 -0.627447 2.38448
        -7.33197 2.99408 0.430031
        -0.682572 -4.83707 -0.777059
        -4.25058 -0.415048 1.16
        -2.06598 -1.52609 -1.46924
        3.09499 -1.31608 0.803183
        -8.29165 -0.269682 0.90721
        -3.87174 1.55101 -4.43295
        -4.85976 -2.15212 -0.746171
        1.22446 2.0163 2.03518
        -0.795345 0.309643 0.116199
        -2.79159 6.89514 3.57845
        -1.54265 -1.64659 0.553667
        6.39418 -1.24611 3.50941
        -1.61635 1.57236 -3.11963
        -5.904 2.05518 4.21697
        0.47137 -5.37161 2.77889
        -2.29202 -0.889649 3.30637
        -6.12539 2.6581 -2.04595
        1.96383 -1.78013 -2.19223
        -1.91693 5.95687 2.78686
        0.610469 -3.92991 0.711813
        0.400506 -0.267444 -0.13058
        -3.4411 0.00155553 -2.70875
        -5.37816 3.20473 -0.340059
        1.31777 6.75898 2.94887
        1.32608 -2.80057 -0.728532
        -0.456039 3.60906 2.67398
        0.505684 2.00342 3.43331
        -0.666754 1.8546 -0.163528
        -7.97717 7.34072 3.03898
        -2.45946 4.16165 6.50367
        0.236258 5.7193 0.194696
        -9.9101 -1.27483 -1.04042
        1.67987 2.39261 -0.877329
        1.9297 6.92813 4.97889
        -2.37474 3.22523 4.37063
        -2.62414 1.65513 -5.66866
        0.894567 1.12422 2.76521
        -5.94578 2.06678 -1.2976
        -1.42078 -3.08106 4.79328
        -3.5845 -8.0408 5.96656
        -0.911819 -7.16291 -0.271804
        -3.26923 -8.84531 -0.0367536
        -3.59644 2.93525 -2.24382
        -3.23071 6.61025 -3.41127
        -0.0483335 2.37292 -1.09415
        -1.85425 -3.6218 2.6452
        1.01248 -0.996961 3.28359
        2.67956 0.385047 -2.43362
        -2.33021 3.3745 10.069
        -3.97569 -0.803169 0.43026
        -2.3133 -2.50846 -4.99074
        -2.65229 -1.22302 -2.37307
        -3.1391 4.71976 1.366
        -1.21409 0.520803 2.54046
        -2.32859 -1.54469 4.32086
        2.17254 -4.68355 2.50556
        -0.100679 0.32562 7.20901
        1.47499 -0.187365 -1.2925
        -1.2754 -1.35507 -2.94522
        -5.51071 -8.05373 5.70753
        -2.07359 2.67902 1.17393
        -4.48481 -2.26245 -0.0559881
        -2.36823 2.8732 4.77156
        -1.19176 5.28714 -7.79747
        -4.75456 -3.38787 6.01652
        1.24569 -1.52484 3.44202
        -1.97636 3.81236 -1.19904
        0.272986 5.71788 2.58978
        -4.91511 -4.36528 4.55894
        -1.93896 -0.169774 -5.85935
        4.6581 -2.72634 -3.00385
        -3.84131 4.10829 -4.96445
        -5.06413 0.165796 0.231004
        -1.52455 -7.01253 -0.778197
        -2.7019 4.16487 -5.20636
        -6.02967 -2.99696 -3.89983
        -7.71409 -5.47604 3.55711
        -2.13446 1.95926 -1.0379
        -3.37637 -3.59528 -1.52482
        -4.32401 -3.18393 -7.03352
        2.70569 -5.1939 -3.73826
        1.06503 0.526632 0.699485
        -1.26852 -1.77938 -3.98207
        -3.92789 4.69359 -1.28321
        -3.77894 -1.60337 2.35598
        -3.4064 2.23989 -5.76488
        -1.15858 -2.32056 5.12862
        1.18234 -3.93515 -0.660948
        -1.25951 -1.88069 -2.15834
        -2.54788 -5.69223 -4.88065
        -1.30251 0.925859 -1.38945
        4.72578 0.242936 -0.661329
        4.41492 3.24436 1.52677
        -6.89648 3.12696 1.14524
        0.528203 5.05578 -5.59582
        -2.73906 4.72191 -2.60096
        0.0684369 3.07244 -3.65393
        -1.54662 3.65652 -3.01466
        0.731637 -1.30198 6.03131
        -6.37531 3.82962 1.11535
        0.120008 2.9271 -1.36705
        1.72842 -6.36006 -3.9336
        -1.93369 0.608041 0.545085
        -4.37541 -0.207179 1.24016
        -2.69355 1.81355 0.734722
        -0.491817 1.07367 -5.23059
        -0.517578 3.58953 2.23741
        -6.07905 3.18173 2.14447
        -1.94591 4.5183 6.20484
        4.40108 1.33518 1.70599
        -2.94181 -2.37596 1.61554
        2.33313 -1.76445 5.64889
        0.059018 3.54803 -1.00275
        -6.05888 4.24958 4.03369
        -6.20278 -0.95811 -1.19931
        3.6476 2.86162 0.387692
        -1.28498 1.3504 2.95504
        -3.52737 1.49482 -0.988142
        -1.48075 0.676679 1.5629
        -2.50423 0.0370258 1.71346
        -0.23798 2.9108 3.82198
        -2.89255 3.14299 -3.68651
        0.854915 1.65433 2.97122
        3.94985 2.93804 -0.940121
        -3.25466 -4.71393 1.97782
        -7.65423 -2.18722 4.61712
        -3.26236 -3.15747 -2.24581
        0.040235 -5.10693 -1.12969
        -0.942041 1.0407 -2.6414
        2.34715 1.12474 3.38528
        -6.96655 5.66057 1.68295
        -0.672774 1.22492 3.61606
        -3.51371 3.44705 1.75929
        -4.89795 -6.21591 1.21709
        -0.126691 3.90423 -5.65186
        1.57005 -5.44129 -1.88716
        -5.34575 -1.21345 4.91296
        2.75785 -2.65566 2.11041
        3.23488 2.47299 -1.94777
        -3.64448 -9.12667 -1.12504
        -1.24509 -1.21183 -2.38025
        0.12019 5.99606 -4.12474
        3.25573 1.30258 4.59559
        -0.159505 -0.130971 -2.60139
        -1.40499 3.64818 -0.154755
        0.447632 -3.25142 2.96896
        4.45152 0.704183 -3.49443
        2.70861 6.28134 -3.26518
        -1.10893 1.3365 -6.6849
        2.74896 -0.304897 1.97194
        -7.76808 1.78974 -1.78711
        -3.56395 0.0365639 2.08492
        -1.80181 -1.22944 -2.94675
        6.75715 5.34727 1.63569
        -0.516965 -3.07032 7.80063
        -3.80033 0.687033 -0.705688
        -7.54892 3.44334 5.15362
        7.76552 -3.32318 0.895195
        -1.03208 -2.85673 -1.7995
        -0.308042 -2.2079 4.39303
        1.45245 -1.0536 -0.202016
        -0.457607 0.210445 2.63665
        -2.33637 -0.318319 -3.41217
        4.07976 -2.90106 3.61399
        2.67438 4.3198 -1.85967
        -3.77723 -4.71978 3.9486
        -3.79463 -5.06816 -1.57516
        2.83501 -5.1068 3.40429
        -0.860102 0.997921 1.58561
        -1.80179 3.01145 -0.345694
        -6.76116 3.63586 -6.3235
        -0.610955 -1.15397 -0.00212113
        -1.46535 -2.9626 -0.477755
        -2.32734 2.44205 1.52885
        2.60721 -2.11815 -2.97443
        -3.47631 3.32917 0.253722
        4.44498 -1.30913 -2.38466
        -0.166422 -1.16886 4.37152
        0.365608 2.09028 2.62133
        -0.708429 -2.79001 -3.70382
        -1.1491 -0.764303 -2.6229
        -5.73028 -2.23257 -2.78941
        4.8254 -6.41152 1.64665
        -5.69159 1.61779 2.07463
        -2.24777 -0.0315173 -0.775527
        -2.71101 5.37234 -0.138421
        -1.50264 0.317666 -2.70591
        -5.16583 1.87607 -1.52791
        -3.45707 -5.87285 0.711747
        1.59024 3.05785 -4.67105
        -3.89584 3.78874 -2.71328
        0.923833 1.83939 -1.77603
        0.627817 0.461738 -2.52326
        2.40327 -1.13137 -5.29194
        -4.36673 -0.575616 4.9226
        -1.31156 3.38017 5.54796
        0.940733 6.24906 -5.0739
        0.543982 0.796551 -2.09162
        1.47406 -3.52747 -1.66064
        8.57325 -4.61094 -4.65805
        5.71132 -0.0772233 1.27685
        2.05081 -5.03806 -0.762003
        -2.17995 2.228 -2.85955
        2.75269 -3.87098 6.88085
        1.58964 -1.58999 -2.04938
        3.0881 1.08332 -2.01027
        -3.25573 0.627573 -3.05226
        2.8153 5.57618 0.023157
        -2.38297 3.96766 0.312523
        2.95939 2.47857 -0.151478
        -2.53113 -2.23215 -0.854865
        3.83098 -4.14009 1.73411
        -2.43703 3.08043 -1.05607
        3.14759 -0.361207 6.83488
        -4.81826 3.99402 -6.86772
        -0.678772 4.38423 1.96573
        -1.86494 5.06221 -5.35072
        0.986357 0.0602797 4.91735
        -0.614289 1.26228 1.95798
        3.62829 5.51761 1.70129
        -1.97547 1.52766 6.01937
        4.04111 -0.0135414 -0.619144
        -3.31766 1.42237 8.66254
        4.05077 6.12006 -3.08291
        -4.78698 -3.57578 3.03199
        0.903425 0.149855 3.71983
        -3.56446 -0.345572 -1.10371
        -2.24791 0.675637 -3.65122
        -0.996299 0.19483 -5.3665
        2.97664 2.40173 2.68002
        0.265044 -2.80057 0.192298
        -2.57314 3.89522 3.42502
        -2.42301 2.11431 2.28971
        0.560487 0.383762 1.0123
        -3.78081 -2.53433 -0.86519
        1.4485 0.240754 1.12276
        -1.85032 1.87658 5.5748
        -2.42001 3.89648 -5.65377
        -4.12026 2.29238 2.15302
        -0.628423 -0.070336 -0.441695
        0.379472 -2.83131 -1.36293
        0.874891 2.09955 2.14984
        -1.91412 4.04338 -0.635221
        -1.43868 3.54225 -2.13077
        2.55974 2.84468 1.16398
        -4.15461 1.33952 2.11797
        1.19369 0.701547 -1.15536
        1.41992 -2.12625 0.815677
        -0.202457 0.836229 -0.98404
        0.0718329 -3.19089 -8.31571
        0.908554 -2.1233 -0.151538
        -0.0269131 -4.72273 -0.411423
        -3.27565 -1.68628 -0.176171
        -5.15675 1.80159 3.74035
        -0.720856 -0.206851 -1.28495
        -0.747348 0.709703 7.78104
        1.6005 -0.554368 2.06916
        -1.40719 1.19652 2.02026
        -0.74506 3.14301 1.06615
        1.21852 -2.00046 1.09678
        -1.74351 -1.14613 -0.130006
        -0.824263 2.81474 -4.25356
        -4.27141 -0.789806 0.479752
        -3.3135 -1.63734 3.27718
        -3.72605 -7.10185 -0.100426
        -0.217512 -0.0316315 -1.45349
        -2.35382 2.42538 -1.68205
        0.466721 0.536495 -4.9593
        -4.23749 -0.201929 3.22189
        2.50049 1.09194 -5.79267
        1.18113 2.81562 0.404876
        -1.44785 -0.579794 5.68755
        -2.96821 2.9313 -4.23901
        -0.782481 4.30196 3.22281
        -2.47706 -2.19984 -2.07063
        -0.79374 0.837519 -3.35345
        6.04335 -0.0489402 3.20732
        3.45859 -4.12352 3.4534
        -2.09075 1.66229 2.07807
        -0.243085 -1.08318 5.28444
        1.38927 1.92724 -1.47079
        -4.14632 3.19473 3.59883
        -0.909287 3.72811 4.85544
        -1.22725 -0.141117 -1.51327
        1.43138 0.305874 0.590131
        -0.883645 -3.26516 -1.99867
        -6.00523 2.12626 0.340263
        -4.42103 4.62995 -3.1732
        -4.52298 -1.84735 4.75641
        1.39685 -3.14873 2.16086
        2.48835 3.51514 -0.291455
        -4.25464 0.810304 0.800839
        -3.57591 1.03062 -0.0892991
        -3.11328 1.72869 -3.68971
        -0.835263 -5.88856 0.518444
        -1.80096 -3.09668 -2.424
        1.64418 0.18227 -1.13729
        1.97525 -6.10112 -1.86666
        -6.78239 3.50484 3.02327
        2.38046 0.512723 1.65104
        2.0717 -1.54683 -7.03943
        -4.73021 -1.20922 -0.160384
        -2.05391 -1.01863 1.13405
        -5.09912 4.70723 -7.62875
        1.45129 1.65781 -0.257431
        -2.66463 -2.55189 -3.14974
        -6.43969 3.08601 6.94464
        0.787967 0.438011 -0.649821
        2.92762 -5.19261 2.94549
        2.85422 0.753826 -3.38713
        5.14081 -1.6356 0.929676
        -3.8673 -1.27195 -2.68843
        -5.7679 -3.09105 -2.13891
        0.445357 2.43711 0.598464
        -2.84573 4.53738 3.18185
        4.10304 -7.00183 -5.0985
        -1.10047 0.445694 5.16529
        -0.845051 -0.701352 4.93094
        1.26217 -2.31856 -6.35668
        -1.585 2.34304 1.52238
        0.813839 0.300611 -0.610026
        -1.34996 2.7945 -2.10374
        -1.60043 -1.00525 2.19033
        -1.36017 -1.86292 -1.70963
        -1.73997 7.69517 -0.81314
        -2.51449 0.91722 -1.1419
        -3.96634 -0.707147 -3.99522
        0.106267 0.671465 -2.33008
        -2.60336 1.53788 -0.364605
        -3.53345 -3.38985 3.56442
        -1.76043 -1.14592 3.17227
        -2.94957 1.65466 -2.7333
        -1.73613 2.07008 0.664138
        4.81208 -1.58697 1.41748
        -3.12057 1.06041 2.46081
        -1.30435 -2.80498 -1.53502
        -3.22048 -1.03983 0.0295095
        -7.32903 1.15225 -0.43943
        1.97451 4.17206 1.47596
        2.86048 -3.1213 2.16281
        -1.06605 2.56997 1.23188
        -2.35369 0.815351 0.362323
        -4.03302 3.54451 -3.4923
        -0.298085 0.0946374 -1.4988
        -8.47555 0.726938 1.70511
        -2.15643 -5.31231 0.758734
        -0.646552 -0.96277 1.26721
        0.602289 -6.01581 1.43972
        2.95426 2.61494 5.30994
        0.498092 -3.77315 1.35843
        1.28888 7.06248 4.53692
        1.27057 1.08314 2.67153
        -1.9698 1.24871 3.96636
        -0.577885 -2.64985 0.927005
        -0.619014 -0.968212 2.69514
        -2.4866 8.11133 -0.758846
        -1.13261 -1.52216 -2.54876
        -5.3106 -2.47489 1.78863
        3.1165 0.733699 -1.16577
        3.17377 -4.14924 -1.18103
        -4.70889 2.32688 5.83187
        -2.96558 -3.70149 0.148872
        -4.16745 -0.470189 0.796185
        2.70572 2.35939 0.643891
        -2.00137 -0.388417 1.37868
        0.411885 6.36121 -4.13284
        4.01328 -1.97159 -5.44957
        1.77577 0.652777 -4.01765
        -1.29436 0.523479 6.04142
        6.25665 3.50357 0.239748
        -1.05642 5.85604 0.666301
        0.598651 0.578646 1.46877
        -5.8094 6.09678 2.79523
        -1.03771 0.359454 -2.47609
        0.553599 2.49372 0.782028
        -2.1217 0.725454 -1.79878
        2.11339 -1.34465 3.6557
        -0.463482 -5.09242 6.36617
        -1.72005 1.68765 2.8152
        -0.0166008 -1.44173 -2.29076
        0.0287064 -0.757236 2.06273
        -0.20603 -1.1367 -1.84389
        4.79502 3.72432 0.255184
        2.56806 -0.459661 -6.35349
        -2.12891 2.53332 2.34646
        -1.1454 0.644513 2.91253
        -0.709023 -3.47689 2.02928
        -5.57917 3.01502 1.01843
        -2.11085 -3.15122 0.49762
        1.79847 1.44193 6.28742
        -2.69342 -4.81829 -0.0189795
        0.33385 -1.74554 -4.15894
        5.08735 1.69025 1.29321
        -2.06125 -2.65241 0.110279
        -2.27933 -2.70899 4.13224
        -2.36028 -0.938075 -2.39106
        0.125306 0.651506 0.611843
        -5.6344 -1.67336 -2.99785
        -4.44593 0.540412 -7.59419
        -0.715665 1.0418 5.63549
        0.0491231 1.00086 2.4941
        1.78515 0.600844 -3.08074
        1.98641 3.92932 2.91601
        3.04213 -3.47401 0.0209742
        -3.20213 5.38769 2.89909
        -7.05764 -4.57283 -0.226656
        -0.343805 -2.10479 -0.741235
        -5.08327 -3.38835 -1.63094
        -2.30051 -1.075 -0.443191
        -7.81777 -6.43977 3.27869
        -2.8573 -1.08619 3.01465
        1.68455 3.06418 -0.0373189
        8.13286 3.19138 4.89857
        -1.49441 5.13077 1.45357
        -3.1093 1.11455 -1.75967
        -3.02603 -0.544462 -2.05294
        -2.20106 -1.06644 -1.4896
        2.28338 3.47059 -2.25991
        1.57031 -6.23843 0.615983
        1.82834 2.31605 -2.10872
        -3.0175 3.40198 -2.16416
        -1.84852 -2.73689 2.76788
        -2.67188 2.12311 -0.185402
        5.25764 -3.79678 -3.95192
        -2.99086 0.610412 -1.00888
        -1.97088 -1.35894 -1.69653
        -1.34774 0.360117 -0.733725
        -5.01308 1.70909 -7.80683
        -1.66529 2.29745 -5.55292
        2.32039 1.4343 1.64308
        0.346872 -2.07217 0.422951
        -2.05843 -3.79118 -2.13252
        2.49807 4.98608 -4.19668
        -1.49706 2.23877 1.16759
        0.801585 -0.653748 0.390857
        -5.8781 5.11963 2.56338
        3.09599 -0.82286 -3.99955
        0.814916 -3.28733 -0.287446
        -2.82982 -5.8695 3.55641
        -5.81399 -0.532589 -3.98724
        -2.47996 -0.0238442 0.872869
        1.08057 -1.98318 -3.40407
        -1.75749 4.77425 3.54868
        1.62962 -3.64298 1.23628
        -4.27203 -0.03865 3.40725
        -1.57413 2.80634 -0.237545
        0.163559 -5.9113 8.82681
        1.31622 -1.01098 -0.158369
        1.91893 2.19172 4.7964
        0.0777597 -1.77898 2.20394
        -1.28452 1.14883 3.00925
        1.50068 2.04973 5.06693
        2.02056 3.44744 -0.0188082
        -3.9999 1.63068 0.128844
        -4.41349 3.37852 -4.4104
        -0.890519 0.838203 -1.90959
        -0.971456 -1.85087 -2.98821
        -0.463545 -3.5812 -2.42711
        -0.257265 -3.87909 0.513467
        0.508458 3.62517 2.98965
        -5.41543 7.6836 -0.847044
        6.38796 -0.538539 0.220888
        2.00066 2.18622 -0.590163
        -4.87731 -2.27724 -1.03847
        6.10895 1.45057 3.43335
        1.30475 -3.19158 0.374894
        0.32188 0.0373104 -1.6685
        0.0535218 3.04247 3.59826
        -1.12443 1.57529 -5.37115
        1.16139 0.491541 -1.19511
        0.335543 -0.00446571 -2.20066
        -0.19977 -2.37875 -2.00248
        3.47542 2.98744 -1.49095
        -3.14194 -2.61976 -3.55301
        0.133455 4.55486 0.723581
        0.964703 -2.04297 3.71403
        4.60297 -8.25941 3.42563
        -4.96344 1.71119 1.86822