<?xml version="1.0" encoding="UTF-8" standalone="no" ?>
<VTKFile byte_order="LittleEndian" type="UnstructuredGrid" version="0.1">
  <UnstructuredGrid>
    <Piece NumberOfCells="0" NumberOfPoints="15094">
      <PointData>
        <DataArray Name="velocities" NumberOfComponents="3" format="ascii" type="Float32">
        3.32792 4.23233 4.46542
        0.30658 1.48434 1.5787
        -3.64802 4.96138 -1.85236
        -0.794837 -1.79744 0.00596248
        -2.59978 -1.70435 0.321619
        -2.22566 -0.672839 -6.07241
        0.457539 2.81961 -2.50665
        1.44321 3.09427 2.01146
        -2.81443 -0.775607 1.0854
        1.85907 -1.14185 0.192621
        2.31709 1.90526 3.70424
        0.272337 -0.152752 -4.97006
        4.30397 1.30878 -2.72083
        -1.53285 1.16061 -4.33462
        -0.418068 1.23042 -0.958716
        -0.306362 -6.39203 -0.885765
        -5.28849 1.93085 2.61264
        -1.56863 -2.56931 -0.862631
        -1.6202 6.20985 -0.61312
        -3.95288 0.700135 1.23973
        0.813115 0.505471 0.909459
        -3.12436 2.77836 2.00901
        -4.35988 -2.06056 -0.206488
        2.83252 5.65721 2.02102
        2.37478 -0.0650138 3.31601
        2.70595 0.770794 -5.19181
        1.72982 -0.151751 -1.79858
        -3.72455 0.8688 4.44773
        3.08743 -3.27148 -1.16402
        1.44457 -3.22403 2.59595
        -4.89051 -2.74083 2.11254
        0.138898 0.725109 -6.38379
        -1.95103 4.9665 -0.494053
        -5.24339 1.50409 -3.15889
        2.82809 2.62092 -0.750765
        2.83673 2.90554 -1.01205
        2.85703 -0.0757804 3.7343
        2.31407 0.401594 2.21872
        2.76591 0.753441 -1.0582
        4.21895 1.48297 3.34781
        -1.52841 0.140256 2.95515
        5.02338 1.23921 1.00949
        -2.16935 -1.27616 2.10444
        4.20016 5.77224 -0.854646
        -0.169261 5.74165 -0.0204758
        3.83249 -0.04388 1.50589
        -3.08603 6.40494 -2.16086
        -1.01747 0.55096 0.855427
        -3.36196 0.31397 -2.06727
        -1.73712 -1.15099 -2.60206
        -2.37431 -0.229543 4.08288
        -8.5747 -3.47557 1.94641
        -6.57017 -2.79163 -4.02202
        0.542611 -1.01503 -4.44551
        2.57326 -4.46572 -0.508756
        2.16147 -3.66466 0.849429
        -2.36773 -2.55696 -1.36322
        -3.92733 -1.29835 -0.944457
        0.238781 -1.67279 -3.77912
        -0.221406 1.32545 -3.2873
        3.51472 -4.25124 -2.19878
        -3.60451 2.25037 -2.56552
        1.35602 -0.180018 3.66325
        -1.59636 -6.32845 -1.81212
        -0.805614 -4.81872 0.529843
        -4.31217 0.377531 -0.0651066
        2.34446 6.10848 -6.96284
        0.215251 2.5464 -1.22347
        0.696994 6.73117 -1.70691
        6.42861 4.35648 4.21141
        -1.1304 -1.31992 2.57531
        -5.61462 3.33148 -2.37521
        1.57406 0.0172589 6.54547
        1.32073 4.55567 0.472957
        -1.31581 4.17147 -1.68029
        5.35466 3.16636 2.32562
        2.22449 0.150675 3.16529
        2.98899 -6.555 -4.51604
        -0.323938 0.678357 1.18804
        5.46384 0.201265 -1.81893
        4.3714 -1.90786 -2.48614
        -6.60023 5.57285 -1.59434
        -1.09932 -0.895463 2.14245
        0.243571 -4.19986 4.50286
        -0.5797 -0.884955 0.278638
        -3.58892 -3.9535 0.466422
        -2.05936 4.79105 1.37791
        -1.57479 3.51541 -2.35263
        -0.567271 2.38289 5.47652
        -1.96118 -0.866052 -5.33246
        2.13078 3.73337 -2.58882
        -0.999325 0.146961 2.59216
        2.85083 0.53087 -5.49607
        -3.64121 2.09837 -2.75634
        6.43384 2.45696 -3.56136
        1.13133 -6.72425 -2.18937
        0.0299734 4.36673 -0.276906
        4.45606 -1.85509 3.48588
        -2.29182 -5.19777 -0.323189
        5.03013 6.89584 4.8099
        -0.21752 -0.472292 2.98626
        1.78762 -2.33549 -0.193026
        -3.31625 -0.391851 4.28609
        4.023 2.49603 1.8347
        1.76083 -4.01173 -3.58212
        5.22111 -0.365354 -3.36071
        9.37573 2.89937 1.32815
        3.10867 0.77348 5.95515
        -5.15906 -1.44748 -2.89521
        1.07138 1.48802 0.172336
        -0.172495 4.84185 1.34274
        -1.61721 1.05686 1.03473
        3.53778 2.32866 2.40358
        -0.719866 2.43537 -3.12368
        -0.15266 -0.493654 7.08032
        -1.12288 1.43804 -2.77117
        -3.28807 -4.73074 4.67193
        -4.80483 -0.465939 3.05749
        -2.15729 2.59385 -0.364272
        -5.88296 2.16475 0.604305
        -2.97803 -0.603479 2.59636
        4.42605 -4.77324 -4.84999
        -0.621147 6.41181 -5.85984
        6.27667 0.00584726 0.829369
        1.40257 2.35997 3.34782
        1.245 2.93598 -6.02424
        -0.757235 2.37322 -4.15617
        -6.97406 0.763677 -0.160846
        7.59279 -4.57114 -5.22508
        -3.93872 6.757 0.298981
        0.88415 -1.44577 5.45605
        -1.10167 2.32628 3.12362
        -0.952093 -1.65311 -4.47609
        5.90031 -0.458485 2.85832
        2.54494 1.2112 0.881657
        -5.12692 6.76785 0.940499
        -2.11781 -1.21144 3.76797
        -1.80421 4.89782 -0.665929
        4.05553 1.00795 -1.86342
        1.33422 4.20975 -2.12041
        -3.06504 1.04859 2.80701
        3.07758 1.84788 -3.03779
        0.717153 3.88593 -4.27509
        -3.12824 1.44277 2.22506
        -0.137197 1.89764 -1.55689
        4.87766 1.18997 -1.72713
        -4.92047 -0.976147 -1.42324
        4.97218 -1.35209 -3.33289
        -4.82141 -1.85908 1.21069
        6.09698 -0.508364 -2.29868
        1.34568 4.24516 -2.69708
        0.642781 -0.114707 -3.3163
        4.83164 2.63642 3.425
        -0.978131 2.38792 -0.11846
        2.65047 -0.354231 -1.32945
        6.40147 -3.03329 1.13682
        2.22087 -5.47764 1.55244
        -2.56826 1.00244 -0.972129
        -2.93342 0.740834 -0.832329
        -2.78542 -2.20189 4.67848
        -3.0038 -3.91367 5.74394
        1.03699 -2.56364 4.99227
        2.22808 0.449887 4.97538
        0.460094 7.71963 -3.46319
        7.48085 3.59439 3.49368
        -0.629297 -4.98911 2.35024
        3.31109 3.14962 -1.71774
        -2.25064 -8.91931 2.60516
        1.7428 2.25932 -4.44482
        -2.1285 1.5615 -0.96055
        2.26349 1.22792 -3.38294
        0.316017 0.321415 -4.07251
        -3.02433 3.16496 -0.902323
        1.74333 3.42753 8.39989
        2.24117 0.00208678 -1.26956
        -2.25155 2.30445 1.13483
        -0.849794 -3.3697 -1.24579
        -1.87933 -0.174507 2.27683
        0.214368 -0.216818 -5.06896
        3.41443 -0.5991 -0.957231
        1.94264 2.68211 -4.24899
        2.73929 -2.76628 5.4485
        -0.487187 3.66615 -0.418516
        0.556196 4.57398 -0.807204
        0.000201282 -1.37701 1.09411
        -0.146738 -5.48741 -1.75862
        3.87802 7.10018 -2.61562
        2.04725 -0.582195 -3.82871
        -5.58022 -0.254197 -4.42115
        1.03095 -0.536597 0.836106
        -2.96106 3.51279 -2.81616
        -0.472587 -7.63749 -2.17908
        -6.21761 6.46042 -3.93353
        1.70482 2.00826 5.93114
        -7.82645 -0.379083 -7.93572
        2.7225 -6.25133 -2.08889
        -1.17646 -2.39198 0.360383
        -1.90255 -3.213 -1.84343
        1.33619 0.779717 0.974529
        2.09656 -0.623708 4.79819
        -0.764369 -4.76246 -4.75016
        -0.102462 -4.26257 -1.18996
        -4.27653 -1.41192 -2.6222
        4.01395 -1.77415 3.29472
        3.59908 2.09293 5.50579
        -0.349729 5.10242 -4.38515
        2.07847 -0.800021 -2.17205
        -0.0268771 -3.76378 2.16472
        -2.80735 -1.59645 1.93585
        -4.22655 -1.40795 -1.14538
        -1.35305 2.02525 4.15312
        4.16869 -1.25426 0.285742
        -8.24893 3.95472 4.42555
        1.04086 0.839646 -0.0366601
        -6.15885 0.284534 -0.721876
        -3.58557 -3.74305 -8.09831
        0.409259 -6.54648 4.97689
        -0.730501 -3.69312 -0.354798
        -0.199626 -10.0142 1.37854
        -3.74443 -2.36233 1.99093
        -2.39901 0.754269 -6.35836
        -1.15477 -0.632037 2.22205
        0.379082 1.423 4.63527
        5.30268 3.09468 2.80789
        -0.405977 0.0323782 -0.966197
        -6.08888 -0.109683 -4.64871
        -1.14351 3.84759 -1.00357
        0.155957 2.20413 -3.54589
        5.04584 -1.01181 4.19465
        2.84628 -0.958522 0.476829
        -7.67605 6.11576 4.46556
        -3.05196 -2.11566 -0.738428
        -2.99843 -0.148303 -4.23527
        -2.67663 -1.42128 5.11066
        0.761126 -1.52029 3.74386
        -2.49433 -7.2819 6.05382
        5.93087 -5.49527 -1.63024
        0.837452 -0.453717 -4.11737
        0.858042 3.11184 0.511226
        -3.72142 4.12428 -0.820279
        -2.83776 11.4012 -8.41683
        2.19956 -1.97284 0.79078
        0.493929 -0.445628 1.73534
        -5.15696 0.559427 1.5894
        0.820382 -3.89669 4.21061
        3.49273 -4.00865 -5.61262
        -4.28798 3.87496 2.00317
        -9.11337 -2.30569 2.87389
        4.4718 -3.76629 5.49654
        3.39708 0.388254 -3.64597
        3.9033 5.75499 -1.1401
        -1.5303 -1.05817 4.46895
        -2.25557 3.28697 3.14727
        0.684561 -0.586083 5.02372
        -3.00042 -1.37495 3.72152
        6.1939 -3.11827 8.51955
        -5.85579 -0.688717 5.06577
        0.602335 -4.48824 -1.70966
        -0.162068 4.09026 3.23431
        8.9495 -2.66971 1.6442
        0.255915 -1.18438 7.26026
        0.439246 6.23221 3.98206
        -2.60423 -2.5106 -0.310414
        -6.20314 0.450359 4.12379
        -6.81927 1.24892 2.03763
        0.469397 0.201837 -0.416787
        3.595 1.60861 0.302077
        -1.6952 -1.95415 1.71175
        0.494174 -4.35831 0.755851
        -1.1744 5.04163 -1.34455
        -1.03159 -0.954967 4.07175
        -6.48615 -0.425911 1.01005
        -0.813063 10.6885 -0.451838
        -1.34003 -2.26265 4.50095
        -5.23087 -1.30583 0.195355
        1.42968 2.58975 -1.45077
        -3.72348 2.78406 0.359194
        -4.84694 -1.47742 1.50179
        -6.55476 2.05956 -0.0514753
        -0.890219 -4.87461 4.33002
        -1.60912 0.252728 -3.46649
        -1.54328 -0.0314985 -1.52662
        -2.46147 2.20102 -3.12694
        -2.92674 -1.95809 -2.50071
        -0.318901 3.53094 -5.10929
        -4.84155 -0.203521 6.30626
        -3.97624 -0.0481649 -3.44459
        -2.9202 -8.16509 1.49755
        4.19379 -5.98566 4.51155
        5.49802 -3.1983 2.65634
        1.07669 -1.88992 -0.0540074
        4.74646 0.4862 2.7523
        -0.406182 0.946767 -0.589618
        -1.01062 4.01922 5.88101
        -1.88126 0.85263 -1.88164
        2.57146 -4.39053 2.21538
        1.87395 -2.20987 2.46525
        -1.31037 -2.64472 6.48512
        0.846112 2.12039 -2.25179
        9.80854 -1.13296 -4.27493
        -4.06391 4.877 4.6661
        -2.83238 2.75115 2.0501
        0.430076 2.50773 5.41008
        -2.04149 -5.93207 1.36317
        -2.62805 0.818916 1.49055
        -2.31635 -1.07912 4.38355
        -0.686456 -0.80704 -3.45415
        0.220612 -2.89251 8.10724
        -4.46667 -0.987181 -0.0541929
        -2.51567 1.96168 -0.311313
        2.0512 -2.55046 2.31046
        -1.5955 2.12314 3.18165
        -1.8465 -0.522321 -1.50316
        4.99112 -0.916888 -0.0780743
        6.56553 0.250968 -1.28833
        -3.56318 0.141972 -0.983301
        -5.42064 1.15277 -4.3324
        -1.37745 0.058484 2.67294
        -5.73435 -6.62091 -0.909368
        2.10944 -0.114791 -0.387064
        1.09502 1.04068 -1.93034
        1.98372 0.795721 -0.0332877
        -0.328501 -1.19301 5.98606
        0.503695 -3.14406 -0.72001
        3.71688 4.6677 -1.7559
        -2.85951 -1.041 0.244709
        1.3829 -3.51371 3.88918
        0.139736 4.04083 -3.33284
        -0.131266 -3.02093 2.29605
        -0.456545 -3.77916 4.89755
        -2.0824 1.58295 -1.80875
        -1.43984 -1.68502 2.95749
        -3.03748 0.850288 1.78885
        -8.55021 11.1065 2.47542
        -4.06681 0.82592 -3.14047
        -1.89963 2.77831 -2.60025
        -3.81375 -3.99476 2.58801
        3.57431 0.919841 -4.73072
        -7.92283 -3.49074 3.37927
        3.03082 -2.64154 -0.0809313
        7.14391 -2.01253 -4.78371
        -3.60831 4.29229 0.476185
        1.7506 1.43913 -0.30522
        -6.77598 1.21121 2.83689
        -0.0917519 0.364509 5.61062
        0.824011 1.89358 -0.668961
        1.40415 3.10885 1.85365
        0.440402 -1.07397 7.67738
        1.47316 1.16547 -0.0542874
        0.0168524 4.15786 2.489
        -3.22998 0.327368 -1.75534
        5.96201 -3.16438 -3.86635
        -4.99851 -0.626419 2.85026
        0.960814 -0.113951 -0.0127344
        1.25466 -0.942043 3.05783
        -6.01668 -3.07724 1.49435
        3.45145 -7.59253 -1.79105
        2.99501 3.63899 3.87014
        0.559124 -6.6702 -1.13095
        2.5191 -4.94106 -0.831952
        -0.275989 0.518165 -0.937863
        -1.8365 2.74803 -6.26324
        -0.607946 -4.25668 -4.58437
        -3.85845 3.28569 2.74829
        -0.71942 7.19907 1.89245
        0.476446 1.78089 -0.781618
        1.35157 3.94667 1.55574
        1.93807 -2.43454 0.363362
        5.71438 0.348664 -0.347792
        1.74861 1.87615 3.09205
        -1.99151 -2.87984 3.55105
        3.00028 -2.3981 -2.93715
        1.6123 -0.870846 6.25117
        0.725162 -3.92932 -2.61693
        3.04533 -4.66293 1.86702
        -4.21522 1.5169 -1.5565
        -0.342184 -0.951509 0.538031
        -5.56971 0.142686 1.24822
        -3.13733 2.12799 3.52596
        -1.30852 2.68429 3.4534
        -6.1904 -2.8142 -4.56342
        1.38977 1.33816 2.40931
        -0.183888 -5.12613 -3.99382
        -2.31578 -3.79189 -2.0166
        -3.95118 1.83793 -2.5388
        1.22384 1.24328 -1.05437
        -4.29188 0.592815 -0.287719
        6.96078 -0.183941 -4.58196
        -1.7453 -1.50218 1.88016
        0.466284 3.14087 3.82585
        -1.17619 -1.78885 -2.6607
        -7.20746 -4.36438 -0.671434
        0.510796 -1.56222 -0.195615
        -2.99589 -3.93601 -2.18072
        -2.91532 0.741079 -2.04669
        -0.653889 2.68556 0.464259
        -3.6645 -2.33594 -5.49922
        -4.03643 8.05529 1.64616
        -6.12625 -1.6903 1.58583
        0.662291 4.88314 0.0192711
        -2.00591 3.02033 0.643867
        2.31721 -0.246839 5.84388
        -3.53083 -1.10789 -5.99428
        -2.11653 1.9184 -2.34823
        -2.32199 1.39755 5.55763
        2.05341 -1.62245 -5.25647
        -6.83104 8.29331 -1.85272
        0.222761 4.55448 -4.33003
        -3.44547 0.705527 1.13936
        -0.393325 0.502572 -0.212422
        1.56873 1.24955 -3.59969
        -1.58313 -0.489194 -1.79076
        0.148305 -3.08147 -0.721567
        -1.87807 -1.30198 -0.425334
        -2.58382 0.484326 0.173195
        -2.90639 -5.21645 0.212116
        -6.07249 -0.718728 0.104846
        -5.2905 -2.77913 9.50542
        1.97172 0.0504304 2.27214
        -3.06672 2.3013 1.59452
        1.57052 -5.26769 3.40757
        -6.58391 -0.819561 -4.63731
        -0.237616 -3.63681 -0.152471
        -6.76758 3.92836 -4.32511
        -1.27711 0.108858 -2.29183
        -7.19459 1.77922 4.04047
        3.24116 3.90605 -1.98661
        2.31305 4.80834 -0.885286
        -0.948428 4.76737 1.88543
        -5.99952 -1.6284 3.33195
        1.52235 -0.688219 3.36405
        7.24778 1.39859 4.64063
        -3.59585 -3.52763 -4.19972
        -1.15824 1.58621 6.31642
        1.39418 0.399083 -0.874979
        -3.1936 -0.345447 1.58778
        -4.17182 -1.52395 -7.44858
        -0.382952 0.478744 -4.25064
        2.25115 -1.57423 -0.404052
        4.63625 1.55188 -3.16073
        2.19442 0.392148 -0.617123
        0.95417 2.89815 -3.11722
        -4.35219 -5.92556 3.74837
        2.96508 -0.245502 4.391
        2.05173 2.72313 -2.14671
        -0.376874 -6.31128 3.09314
        3.05497 3.55646 1.36936
        -4.80656 2.08033 -1.77376
        -2.23404 2.7004 -0.695324
        -1.0091 -2.83411 4.45563
        -3.74341 1.14403 -1.20046
        -3.31747 0.0843655 4.24494
        -0.628065 -0.829704 1.4735
        0.531273 -0.923731 -2.84934
        3.71413 -3.93897 -2.88922
        -2.87173 5.49955 -0.905675
        1.08976 5.16119 -5.08685
        -4.24568 -1.6081 -2.30658
        -0.600402 0.170494 -1.12654
        2.22065 -0.728605 -1.03785
        -2.75535 1.54853 -6.90062
        -2.50288 -4.17732 1.53085
        -4.34269 0.908359 -0.585104
        0.958608 2.38781 3.24951
        -2.5764 -7.11784 -0.537911
        -8.86952 -0.613526 -4.69488
        -4.26758 -1.71551 -2.90871
        0.357453 1.48981 -2.2556
        -3.60389 -0.303515 -0.176561
        6.32735 0.949027 3.19901
        -0.718153 -7.03949 0.712906
        -5.51093 0.918806 -2.81594
        -5.30043 -0.457396 4.7939
        -2.23504 -4.35585 -1.00407
        -3.18106 0.101625 3.22958
        -1.93943 1.67024 -2.10223
        -0.391482 -4.41309 2.82836
        -1.54552 -2.39477 -0.197461
        4.51566 -0.776173 0.299311
        -2.90595 -1.22415 6.40555
        4.7235 0.307577 4.60619
        -0.130192 -0.164206 0.529483
        0.380043 0.693066 3.25366
        0.392401 -0.222994 -0.0894552
        5.81698 0.0565936 -5.65627
        4.70634 3.73468 -2.98928
        -4.80749 -1.55254 0.754545
        2.60757 1.47443 -1.74697
        -3.35797 -6.70264 -2.5582
        -6.84962 7.58494 -0.345851
        -2.16153 -1.21015 5.32857
        0.345787 1.02137 -0.384662
        1.58997 -4.80004 -5.09433
        2.34869 4.39696 -2.01805
        3.5233 0.226481 0.0150234
        -4.38336 1.54081 -4.30294
        -2.85412 -1.50304 -1.05076
        -0.24542 -1.48058 2.36818
        -4.0302 0.901775 1.12244
        3.78549 2.00477 1.93472
        1.72243 -2.46941 -1.28528
        -8.84251 4.48734 -2.51807
        -2.92042 2.47223 0.303106
        -4.97512 1.19987 -2.0939
        -0.695651 -5.11435 -1.25131
        -4.40945 0.604814 -0.14102
        -3.7831 -3.06527 0.0981274
        -2.16704 -1.19098 -1.56583
        -8.71049 2.07755 5.08809
        3.70268 0.219079 -0.808237
        -0.428332 -0.628336 -3.71617
        -0.68849 0.547473 -3.61997
        -2.03548 0.882032 2.87622
        -4.05419 -3.96511 2.47532
        1.38376 -8.84945 -2.54944
        3.12494 2.13523 -2.27013
        3.25193 -2.32492 0.863201
        -4.90625 -2.32998 0.703401
        -3.19615 -5.47213 0.475703
        -0.391824 3.05333 6.28892
        -4.08335 0.356884 -0.648356
        -1.25057 -0.831932 0.0833389
        -2.14493 -2.26937 5.8733
        -6.24578 1.07333 -1.88544
        -1.53124 2.88011 -1.11404
        -1.05321 -0.0815263 -2.44132
        -2.89655 1.36865 1.33377
        -2.83599 -0.26354 -0.303874
        5.44912 2.57113 -3.95327
        -0.905963 6.44522 -0.280708
        1.00238 3.98732 -0.943317
        -0.533444 0.681874 -2.09139
        -3.97521 -0.0681438 -1.16763
        -5.03281 5.33454 -0.334555
        -4.80286 1.13145 -0.800874
        -4.7468 -2.8706 2.37279
        4.62141 5.97747 0.212019
        1.99295 0.705985 -3.68846
        -1.29321 1.48924 -5.35696
        1.2246 -6.93486 -3.51706
        -1.37915 0.429406 1.24309
        -0.69676 -5.35379 -0.87381
        -4.13689 -2.18579 -3.80969
        3.48058 -0.670593 -4.41288
        -1.22527 0.79993 -2.21093
        2.25598 0.0805495 0.840524
        4.49674 6.17156 -0.340933
        -5.06303 2.91465 -0.640148
        -0.114236 1.39561 -6.19519
        -1.31917 1.45361 -2.87128
        1.36899 -1.18647 -1.65599
        -0.529449 -0.337196 2.20436
        3.46031 4.09742 1.25921
        3.16334 1.58877 1.82078
        -0.947621 -0.364685 -5.42416
        -4.81803 -1.28432 2.8741
        0.54892 -4.56981 -2.30777
        -1.92377 -4.77071 -5.51775
        0.80657 -4.02419 4.47335
        -1.01532 -2.34581 0.172624
        2.92548 2.92153 -3.59266
        -3.96787 0.289001 -1.478
        2.1288 2.72313 -0.455918
        -3.06145 -3.98876 2.85324
        -4.74665 -2.16924 -0.959297
        -2.94942 0.281394 0.353605
        -2.76004 -2.19932 -2.39252
        1.0215 -2.78708 -0.35478
        -1.808 -0.563255 2.10846
        -4.02128 3.92254 -2.54721
        3.00068 2.53255 1.83241
        0.420357 -3.74435 4.05005
        0.995484 3.92161 2.18435
        3.55706 -0.728308 -5.15833
        -1.08895 4.67892 1.31997
        -0.509277 0.841875 5.07551
        0.203674 4.85992 1.65251
        -4.20818 0.127269 1.21819
        1.85975 1.4859 -0.0869904
        -2.85256 -3.05103 2.46665
        -2.79181 -5.46953 4.86928
        5.88096 0.0504033 2.71973
        -1.78928 -0.626251 2.36573
        1.03037 -2.57468 -1.81658
        2.58064 2.36208 -2.69391
        2.09981 3.08331 -1.92126
        -0.665315 -1.30664 2.47138
        -1.60642 2.32179 0.310478
        2.61339 -1.82373 -3.98854
        -0.852029 3.83263 -0.533218
        -9.01424 2.17216 2.50708
        0.240336 -0.721258 -2.41401
        0.676105 5.0213 3.15257
        2.01699 2.2089 -1.78826
        -1.90925 0.958143 -0.83234
        -2.9594 -0.438182 -1.08153
        -2.49719 -2.96873 0.11678
        -0.452543 -2.5154 -0.742424
        -3.65453 2.96727 -2.45193
        -0.979322 1.19236 -0.0722492
        -0.290997 -0.813554 0.0692388
        -3.42532 1.01475 2.26272
        1.98411 -5.229 3.8839
        -1.29025 1.55992 4.90686
        -2.49233 2.3866 0.348677
        2.39711 -3.30402 -1.19841
        5.30936 1.295 1.53819
        -1.39816 5.26139 0.889602
        1.40373 -5.74994 -0.293242
        -0.645285 2.02629 -6.45108
        -1.82875 -3.86521 3.56236
        2.42971 -0.410244 -0.223044
        -5.10488 2.30506 3.75771
        -4.14616 2.16484 2.42163
        1.42375 0.555345 -2.50347
        0.398878 3.73884 -0.109459
        0.40233 -2.79118 2.53884
        -2.96737 -0.120021 -3.72228
        5.02887 -3.59492 0.0738231
        1.04911 1.67141 1.05447
        1.5621 -3.99712 -0.174175
        -2.80152 -2.49031 -1.78986
        4.69754 -3.43976 -3.36779
        -0.624309 0.813599 2.00614
        0.645213 -0.434249 -6.03799
        -0.778039 3.09888 1.12042
        -4.13353 -0.430791 -0.4559
        1.92016 -0.584113 2.11671
        4.44227 1.48378 -4.38903
        -4.24992 2.48562 2.1612
        -3.54532 -2.4154 -5.35947
        -1.09775 -0.0321023 2.4047
        -3.71284 -3.94142 -2.10294
        -2.1203 -4.98441 -0.256431
        0.419852 -4.19609 3.28128
        2.17787 1.58165 0.477941
        3.50509 -0.660583 2.00204
        -3.92805 -3.76604 1.6203
        -0.991341 -0.647773 2.06798
        1.0862 1.95923 3.13736
        -2.27887 -5.33408 0.160301
        -0.593022 -0.874673 2.86774
        -2.91828 -0.0218392 -3.50507
        5.47155 -3.95565 -1.13909
        3.42204 -0.464801 -1.7531
        -1.92002 2.49672 -2.92864
        0.266788 0.627107 -1.81688
        -5.95306 0.370248 -0.735693
        -5.31413 -5.55595 -0.414529
        4.12739 1.19067 -2.56861
        1.37708 -8.49164 -1.84172
        5.71985 -1.38058 4.76532
        -1.79101 6.25338 0.643913
        0.562957 -6.13415 -2.3688
        -2.47334 -1.86404 -0.0885132
        -0.771641 -0.615892 3.85937
        0.150599 -1.8765 -3.28033
        3.55667 4.481 1.68414
        4.14546 -0.617869 -3.16219
        0.160116 1.13311 -2.63187
        -0.885437 -4.97233 -0.860138
        -2.51434 2.76689 4.59325
        -3.19207 3.01859 -0.112688
        -0.129893 -3.08917 4.46491
        4.43177 -5.68132 0.797938
        -3.60522 -0.938765 -1.2415
        -0.38529 0.943318 1.71621
        -0.326859 -3.70385 0.216312
        -1.82171 3.00172 -2.18432
        0.625916 -2.33505 -0.7006
        -1.71282 1.26838 3.88643
        1.03807 2.38206 -1.78492
        -0.324764 -1.42044 0.473913
        0.541641 -2.3617 0.546421
        -1.38159 -4.07653 2.31394
        1.99539 0.931797 4.63625
        -5.7357 -4.02164 2.04436
        -5.0861 -3.77504 0.786903
        -4.70813 -1.89844 2.18705
        -3.16106 -0.955945 2.87829
        5.40564 -2.73509 -4.73293
        2.24797 0.684926 -0.271265
        0.0879568 -0.952958 4.10869
        -2.70554 -5.72846 -0.967575
        -0.105562 -1.81103 -3.83808
        -3.48796 4.90791 0.0743007
        5.80046 -2.43771 1.88799
        0.989129 0.32876 -2.58434
        -0.136325 3.63839 1.19972
        4.99747 -2.84628 5.08167
        -3.32865 -0.390571 -4.14278
        -2.44143 -1.2948 -7.79359
        -0.428955 -0.871006 -3.03561
        -1.08332 -3.42673 0.805542
        6.72656 2.51574 -3.37658
        2.55005 0.383917 7.28032
        -1.21526 1.32259 0.236936
        -2.75366 4.53622 -1.2739
        -0.852171 1.68282 1.40974
        2.29189 0.440556 -0.368231
        -2.14699 1.89529 0.061389
        -6.48863 -0.449256 -4.27597
        1.95754 2.86103 -1.19367
        3.92045 -1.81391 3.558
        0.966318 -0.408774 -5.69132
        4.22309 -1.15392 -4.14907
        2.40389 -0.483425 -2.88168
        1.29847 -1.07135 1.37894
        0.983522 3.34211 -3.78369
        2.57928 5.64035 4.42804
        -0.0763625 -1.14992 0.283351
        -1.67264 0.87953 -1.5818
        -0.704804 3.38021 1.58926
        0.858319 -3.80064 -3.00417
        3.10714 1.00756 -2.11937
        -4.17476 2.45637 -0.329952
        -1.60483 -0.225049 -1.88582
        1.631 -0.845455 1.47485
        -2.86031 5.4257 1.50393
        1.11811 -3.15894 -1.38332
        1.57676 0.801263 -2.37717
        1.99738 -2.2019 0.122113
        2.90679 4.40437 1.99259
        -0.876501 4.72771 -1.34091
        -1.06695 5.65881 -2.14669
        5.45411 2.26764 2.62304
        -0.949137 2.2044 2.06995
        0.0855273 -1.14984 -0.506163
        -0.364923 -2.4403 -1.12769
        -2.02633 -0.524999 1.18784
        -1.46358 3.54436 2.01607
        -6.4764 5.15443 -1.70772
        -1.32756 1.02841 0.972502
        -1.74343 1.60712 3.84398
        1.62257 -1.11069 2.72011
        -2.52561 -2.29569 5.44745
        3.09862 -1.5299 -4.46361
        -2.3256 7.51685 -3.74654
        -3.35559 2.35522 -3.21521
        2.39681 2.07299 0.0988047
        -2.04674 3.14321 2.96424
        5.11614 2.2968 -6.88368
        0.786423 4.82403 3.58008
        0.198874 -0.525631 1.76609
        0.929088 -0.721702 6.60079
        -0.358064 4.04424 0.71395
        -1.14699 0.231642 4.88106
        -3.43689 -0.725748 3.40567
        -0.607151 6.10295 -1.35476
        3.40263 -8.89321 -4.77314
        -0.700188 2.74336 0.746965
        5.33984 -0.181056 1.27033
        -1.73102 4.69444 -1.03529
        -4.97683 -0.216255 0.591742
        1.0296 2.51391 2.88385
        1.55404 0.664037 -2.55087
        1.35861 -0.184934 -1.02014
        -1.88606 0.739941 3.07105
        -2.47861 -1.91854 1.95393
        -2.51909 1.55994 2.25522
        1.86954 -7.57723 1.12998
        -2.35917 -1.57978 1.41337
        5.76096 -5.67159 4.41248
        2.78184 -4.46512 -2.72092
        3.92907 -5.16022 0.97575
        3.20761 2.43159 3.60017
        1.18325 -1.58661 -3.15555
        -2.34071 -0.657857 -1.50409
        -2.1131 0.590612 -5.82753
        2.49776 -6.27758 -3.21041
        4.73276 3.883 -0.820452
        -1.86075 -1.44695 6.59693
        -0.340248 -4.49003 -0.538448
        -4.59489 -0.306936 1.85071
        -0.662667 3.8369 -2.11469
        -2.06208 -1.85412 -1.40251
        2.68713 -6.2208 2.94715
        0.0875082 1.40288 -2.72394
        -0.929737 6.16866 4.42683
        2.71069 4.99896 0.282604
        0.331191 4.85993 3.93809
        -4.11498 -1.08821 3.26744
        -5.57155 -0.581766 3.34348
        -0.87138 1.19662 2.23615
        0.758108 -0.546448 -8.4743
        0.864749 -7.65964 5.50496
        2.39205 -3.3081 -1.58869
        -3.88301 2.001 -2.80347
        0.80276 -5.47725 -4.069
        -1.63194 1.22975 1.59619
        4.99579 -1.53409 -3.30809
        1.16342 -2.27842 -0.862787
        -0.172117 -1.10777 1.0633
        2.84234 -0.046502 -1.09422
        2.8739 0.984608 -7.37213
        -1.76531 -0.0577578 -4.93739
        0.217772 -6.98511 3.50468
        -3.36121 -9.14699 -1.55452
        -2.45877 -3.20771 -5.42977
        5.06443 -1.68757 5.71553
        6.19985 -1.43621 -2.21188
        0.932682 -4.60641 4.72799
        -3.76282 -5.58983 -0.20796
        -2.82638 1.0214 5.1576
        3.35575 3.75794 -1.54813
        -2.85643 3.02004 2.33377
        6.42334 -1.21432 -0.918266
        1.61416 7.97326 -0.613703
        -0.269963 1.29336 1.42294
        -0.22425 -0.921378 2.43284
        3.33848 -0.158958 2.16211
        0.119053 2.07271 1.33371
        -3.02354 5.68882 0.351767
        -1.53076 2.0038 4.87198
        3.11745 5.21411 -0.807217
        0.250338 -0.275141 -3.38275
        -1.84024 -3.58145 -5.39211
        0.138604 1.56693 -0.346036
        0.796114 -0.531278 1.07469
        -0.898109 2.53659 -1.03723
        -1.28647 4.59946 -0.781822
        1.7443 -3.32801 5.89081
        0.524951 1.45602 5.22457
        0.419901 5.0402 -3.07677
        1.61971 -5.75968 2.73872
        -3.50891 4.1969 -1.35512
        0.0408465 -2.26939 0.19937
        4.37214 -3.11327 -7.12627
        0.0509094 2.21446 -0.879654
        -5.57273 -3.35627 1.32512
        1.89498 1.63284 4.68732
        -2.96059 3.81693 4.14693
        -1.58333 8.02177 -5.7326
        -3.73675 2.03381 0.438238
        0.470937 0.22367 6.75544
        -0.047415 -5.93818 -2.24217
        -2.7389 0.624308 4.72864
        2.64845 -0.737644 2.13961
        -3.78686 -0.0284128 -3.48246
        1.3534 -0.720965 -8.13042
        -0.16155 -4.29441 0.703366
        0.815511 3.66332 -0.988631
        -3.75814 -5.48846 -3.70736
        -0.620992 -1.21438 -2.345
        -0.833991 -1.86702 -2.41482
        -2.80608 -2.84815 1.21248
        0.825111 -6.32409 -2.49824
        1.36167 -5.78104 -2.61887
        4.64672 0.23735 2.18258
        -1.45499 0.629788 0.209806
        0.546272 -5.51858 1.15472
        -2.13192 -1.08211 0.579345
        -4.60149 -1.35806 -4.66074
        1.35053 -1.74777 -4.99072
        -2.07094 -1.91968 -4.12182
        2.2751 -6.68772 -7.83337
        2.64921 1.35213 -3.41763
        3.93509 -1.88257 5.79936
        2.13178 -3.46466 0.154634
        -4.52788 2.24948 -2.56508
        2.50658 2.0881 -4.79222
        4.33 -2.31548 1.62035
        1.24303 -5.19652 -4.80915
        -1.92197 5.77851 -0.884734
        2.30967 0.956983 4.6239
        -5.14245 3.55639 -0.860798
        -0.424782 1.86164 -1.99284
        -5.09028 0.400319 3.39696
        0.773712 1.60603 -0.46334
        -3.35253 -3.78089 -0.930578