<?xml version="1.0" encoding="UTF-8" standalone="no" ?>
<VTKFile byte_order="LittleEndian" type="UnstructuredGrid" version="0.1">
  <UnstructuredGrid>
    <Piece NumberOfCells="0" NumberOfPoints="15094">
      <PointData>
        <DataArray Name="velocities" NumberOfComponents="3" format="ascii" type="Float32">
        2.22779 2.00583 3.58796
        1.26541 -5.26899 2.87543
        0.0969566 -3.54778 1.04273
        1.94879 2.27528 0.866804
        3.46245 -0.0834767 2.14538
        3.69414 -4.37528 -0.556602
        1.25556 -3.82353 2.85342
        0.81617 -6.5346 2.68726
        3.07808 -0.0670805 1.49585
        -1.83308 -2.80776 1.39577
        0.820044 0.915383 -3.32938
        -2.02002 -1.96122 0.23951
        -1.90094 2.40601 3.62632
        -2.16854 -4.05236 0.544271
        0.71219 -0.703439 -5.36151
        0.224318 3.18848 2.96085
        3.61296 -5.83897 -6.53501
        0.422637 -2.20015 4.17002
        -0.902953 2.34376 0.259931
        0.445044 -2.25761 -5.37125
        -0.975812 -1.05985 0.410341
        1.72814 -6.22229 1.48985
        -1.69537 1.61907 -1.82866
        1.58229 1.07395 -1.85436
        1.49163 -1.72046 -1.48138
        0.718588 4.18263 -3.83599
        1.89498 0.200914 -2.89874
        -1.7839 5.10016 -0.274754
        -3.35009 -0.104298 -2.87984
        -3.32817 0.0764475 -1.8654
        -0.612717 0.694731 -1.79154
        -2.337 3.12359 -3.63558
        -7.99282 1.91007 -1.31078
        -3.00252 -1.97445 4.62569
        -1.53172 2.50877 2.03527
        0.220517 -0.397946 3.0823
        5.06238 -0.346919 4.10594
        1.96913 -2.09153 2.32778
        -1.5148 -0.0798705 -1.41575
        -0.172454 -7.40489 -3.11686
        5.09794 0.95844 -1.08604
        -2.2678 2.74879 2.15905
        3.57944 -0.972627 -7.00408
        2.23315 2.18712 0.877238
        -0.479692 -2.93188 2.04987
        5.20556 -0.347098 1.42942
        0.0562614 -2.35809 6.69722
        2.65679 1.53654 1.72894
        -0.752559 -0.0909771 -0.00153062
        1.4139 2.47699 -0.820371
        2.73737 -0.67425 6.33223
        0.925652 -2.9157 1.81837
        -1.74736 1.00678 2.31875
        -3.55447 -7.55459 0.980541
        0.731942 0.298884 1.43032
        0.307237 1.98635 -2.08744
        -0.570336 -1.85506 -1.80778
        1.53267 3.06167 -2.28558
        1.14658 -2.83003 -6.45679
        0.404105 -0.752456 -3.33651
        1.96132 4.63476 0.14833
        -0.680865 -0.402618 -6.48843
        -0.141719 7.26108 -4.2445
        0.20685 -9.01403 1.68474
        2.55967 1.10354 -0.20894
        0.646981 -2.7829 2.9126
        2.02627 1.70482 -1.49106
        3.8924 1.95064 -1.72867
        -2.27995 -0.26662 0.045396
        2.38731 -2.83653 -3.87112
        -3.62824 -1.61148 3.08654
        -0.566756 -2.06717 -2.61359
        0.432696 0.26128 -1.21764
        2.7377 8.14157 -3.42745
        -4.29097 5.65854 -2.78919
        0.0379175 -3.06167 3.14453
        4.6403 0.68538 -0.183425
        -0.260568 -3.92962 1.80314
        -2.91337 1.85569 0.442476
        2.97436 -3.25429 -0.241147
        2.588 -2.79194 7.28957
        -1.11027 -1.04208 3.02647
        0.240128 1.38561 0.603142
        -0.509067 0.0666403 -2.63629
        1.9528 -0.0179365 -0.217076
        3.12383 2.7377 -0.967917
        -1.87189 3.59041 -3.24632
        2.18233 0.43131 3.52465
        -0.378877 2.17999 5.86068
        -2.58806 -3.46636 -0.352465
        -2.38721 0.0944247 -3.00595
        4.22042 3.38643 -5.31138
        1.71621 4.0912 2.99154
        3.15441 -2.57234 -1.64419
        0.357457 -2.57453 3.9396
        3.61795 4.29989 -3.61277
        0.841773 -0.99427 -5.28418
        3.44861 2.09516 -2.89191
        -2.64888 -0.975937 -0.500563
        -2.7703 4.10959 -1.04799
        1.63994 4.60589 0.700607
        -3.75106 -1.38591 -7.95266
        -0.0956203 0.0487332 -3.72125
        2.54248 3.73464 2.42052
        3.36555 0.347985 -1.43433
        -0.677816 -1.55612 0.181195
        1.37286 -3.25427 -2.76812
        -2.29054 -3.24309 -2.07053
        2.02914 0.25668 0.196658
        3.54001 2.38773 2.87196
        -0.138136 0.420648 -1.79002
        0.654842 -7.91168 0.0710394
        -0.199587 2.49747 -3.50611
        0.219897 3.27382 -0.120905
        1.3108 -0.793982 -3.05028
        5.25111 0.17657 -3.23893
        1.17717 0.270481 1.7227
        2.09839 -2.74612 1.95355
        2.17448 3.86151 3.93857
        -1.94799 -1.73742 -0.316871
        2.25343 -0.596887 3.64335
        3.33002 3.48807 0.54189
        -5.75621 -1.18002 3.69721
        3.01147 -2.27666 1.92341
        0.383516 2.44247 -0.798806
        -2.17115 -0.776286 2.79021
        -5.31611 -1.25246 -3.08688
        -0.130956 0.300653 -1.97655
        1.83622 1.79269 -1.23264
        1.94195 2.20136 -1.87811
        -1.42136 0.643076 2.94729
        -0.446415 -1.12127 0.234274
        -4.60692 4.37074 -0.079073
        5.17234 -3.0453 -3.21713
        1.96683 0.479857 2.69819
        -2.3085 2.55446 -0.911507
        2.55606 -3.39811 -2.55176
        1.84274 -1.64315 0.842717
        1.83593 -1.54769 -2.66088
        0.188685 -1.9604 -4.00752
        2.53042 -1.63437 -2.93112
        -3.80821 1.34472 3.35124
        0.765598 1.80316 4.70734
        -1.62235 -0.601581 -2.40356
        -3.59085 -0.920071 1.44618
        -4.14103 1.28961 0.0165138
        -1.4438 -1.89667 5.20448
        -0.611394 0.563838 -7.76723
        -1.08705 2.35079 -1.04378
        4.80116 -4.56852 0.292127
        -2.71945 0.665459 0.0160702
        5.67511 -2.05923 -4.68711
        -2.04633 0.573562 -4.90432
        -1.34881 0.785954 5.70876
        -3.95626 3.7594 -6.14502
        -1.05074 1.66896 0.329521
        -2.34237 -2.80409 -1.69429
        0.41025 -0.100935 -0.335046
        3.14542 -1.59244 -6.70053
        -0.907094 -1.39642 0.928795
        5.75598 -0.0822352 1.33954
        -2.30981 -0.384297 3.579
        7.17996 3.60244 3.36574
        0.549057 -2.0101 1.79934
        2.41646 -1.02936 0.906073
        3.13098 2.96448 1.77485
        2.68337 4.55157 -4.89794
        2.8263 -0.424768 2.14119
        0.0162943 -0.908751 0.216327
        0.216384 -2.37503 -3.96596
        -4.1475 1.53066 0.240838
        -2.2219 3.89 2.6513
        4.98526 -2.67899 -4.42929
        -0.962544 0.331364 -1.08837
        -0.521833 -3.78761 -1.54656
        -2.59695 3.74371 -1.93911
        3.02774 0.361349 -4.28236
        3.94428 -1.61239 3.94627
        1.31149 0.293324 5.85274
        -2.49279 -1.94265 -1.47763
        2.56336 2.24987 2.45055
        -1.78659 4.45696 -2.89262
        -0.846369 1.55562 -0.39695
        5.71462 -1.6875 2.53075
        4.3417 -3.50756 1.79486
        -0.803364 -2.12795 -1.70168
        -1.39172 2.41826 7.58906
        5.58717 -0.0525241 -1.12925
        1.19133 3.08052 -7.13696
        2.0307 3.76921 -0.153166
        0.868058 1.72194 1.49673
        6.36877 -4.31789 1.90991
        2.38294 3.77531 -3.10676
        3.26316 -0.721291 -1.26701
        -0.540605 -0.963606 -1.15856
        4.23331 2.10891 1.54651
        3.34301 -0.325272 2.33072
        1.0582 3.98299 -0.636823
        -3.09652 2.25769 -1.24199
        2.43262 0.498965 -4.04887
        -2.70761 0.341974 -1.45107
        -2.24111 -5.19619 -0.7152
        4.48517 0.23754 -3.08959
        1.77553 5.0828 4.88852
        2.92851 -1.99722 1.73285
        -2.79122 3.65321 -0.773079
        -1.7414 0.663611 -1.18734
        -7.02385 -4.90861 -4.26899
        2.57126 -2.71958 0.275948
        -0.577283 3.54826 -0.978095
        -1.0159 7.36989 -3.46039
        3.41469 -2.5684 0.569968
        -2.35332 2.78307 -0.622541
        1.9689 -0.320084 -4.8878
        -3.98565 -0.374594 -3.446
        -0.708241 -0.533596 -0.226629
        -3.91331 -0.39365 4.10953
        3.64255 4.50623 -0.971295
        3.06463 -4.18992 -2.04845
        -4.2539 0.277813 2.48427
        2.74826 -3.89455 -4.71717
        -2.2654 1.74866 -4.2378
        0.291834 -1.80596 -1.40133
        2.13467 1.76791 -1.79542
        2.20618 0.176136 0.841561
        0.0483265 5.53036 -1.06958
        -3.40372 -0.361477 1.99216
        -4.30344 -1.54919 -0.114798
        1.29581 -1.50647 -2.14419
        5.97307 -0.697582 -2.86107
        -2.04089 -3.6207 1.36633
        2.68291 2.63225 2.88953
        -0.277194 -0.336394 4.12112
        -0.053081 0.26238 -6.67064
        1.18285 -4.01162 -0.382509
        -2.11759 2.66773 2.17472
        3.83195 3.22036 -1.35928
        3.05937 -1.28115 -5.42395
        -0.658148 -3.52348 3.78574
        1.54828 -1.2424 3.28473
        2.74245 2.83757 -1.98594
        3.04161 4.97489 5.48589
        2.4375 0.146325 -0.484329
        -1.76227 2.51 -5.12795
        5.05225 -3.67106 -0.788539
        1.95431 -1.84462 0.469182
        -1.17217 -1.71028 -0.424266
        4.1906 2.57228 -5.54898
        4.98478 -1.68747 -3.32888
        4.48463 0.654931 -2.19565
        3.15061 -0.477018 7.74775
        -2.55544 -1.10385 -2.50415
        2.40531 -1.4637 3.81259
        0.0102091 2.90785 0.0914206
        1.5563 2.0653 -0.0987042
        -2.41672 2.3877 -5.33005
        -1.03369 1.64361 -2.13234
        -0.184712 2.33758 -2.57666
        0.438114 0.689283 1.11551
        -5.84852 -2.58183 -2.00092
        -6.50367 2.07595 0.212742
        -0.313723 0.405142 -3.03073
        -0.505521 1.00163 2.46725
        2.18974 -1.16427 -0.262815
        5.92397 3.4546 -1.53204
        2.64318 -0.194509 -2.79984
        3.09914 -0.11005 -0.142149
        -2.31623 3.0632 -0.67274
        0.688705 -0.423372 1.35496
        0.519261 8.04493 1.85772
        1.66075 -2.89297 -2.62369
        1.44907 -0.185674 -1.86317
        3.29627 0.335892 3.69707
        1.9397 -0.916906 5.10774
        3.4953 3.46195 2.47082
        -1.75001 1.23065 3.48471
        0.910738 -0.495916 -0.235365
        -1.13506 5.35866 4.52628
        3.25055 2.02151 0.431084
        8.17306 -1.96676 -1.1279
        1.04418 3.48807 1.35715
        3.17739 8.60963 -4.12367
        1.05319 -1.60978 -0.113796
        6.65661 -1.07375 -3.37858
        1.05179 0.760061 2.94148
        -1.57461 -3.06679 -1.72519
        -3.66312 -4.9414 -5.45575
        1.98342 1.22776 -2.82219
        1.29198 3.86555 3.04417
        -2.88889 -3.40524 1.22304
        0.153972 -0.241425 0.452169
        2.25224 3.84936 -0.510548
        0.892245 0.198457 -5.16965
        5.50226 3.63782 6.96173
        2.68994 3.31537 -2.29367
        0.31003 -2.44557 -0.955377
        1.46371 0.319997 -2.75311
        -3.52124 1.54544 3.87815
        -1.42816 -0.0334667 1.50846
        4.74989 1.11271 -2.07439
        2.36911 -5.58715 -0.932359
        5.83826 -0.268808 -3.35929
        2.64 -0.388223 -8.09161
        -2.23543 -5.30068 -0.333157
        2.62835 1.04506 -2.22291
        7.68772 1.07745 1.33142
        1.34678 -0.0602577 2.42542
        1.27394 0.438283 2.31773
        1.95461 -0.332738 0.429703
        3.05332 1.47538 -5.40272
        4.88882 -1.49648 -0.800705
        0.626023 4.27666 -1.65866
        -0.849278 -0.484095 -0.43971
        -1.12742 0.37208 -0.550255
        -0.256072 5.22624 0.234601
        0.531897 4.79968 -1.51362
        6.86014 -2.68213 -0.438083
        -1.15074 4.11793 0.43356
        3.56942 -2.57227 0.204495
        -0.828793 1.04915 7.5864
        -5.39516 5.70726 -3.37706
        2.91682 3.28844 -0.699483
        1.20877 4.35374 0.365415
        0.432805 -2.17366 0.159439
        1.27286 0.959708 4.12245
        -0.0963767 0.913961 4.34752
        -0.84381 -3.97257 -0.125433
        -1.96829 -1.43519 -1.68114
        -0.0751161 2.96175 -5.62241
        6.29955 -0.283944 2.05489
        1.52507 -0.878556 -1.81079
        3.43646 -0.772039 2.56289
        0.229665 1.2338 -1.76209
        -0.0727815 -1.70234 -0.527288
        0.831115 -2.20832 -0.211327
        -4.43856 0.523745 -6.84053
        3.0058 -1.0593 -0.452381
        -2.41873 -0.785926 2.26137
        -0.250532 1.27825 -4.12159
        2.00968 3.08738 0.143213
        2.87078 1.25001 -0.622841
        -3.33807 -2.82099 1.33662
        -0.187172 1.72917 0.996502
        2.49249 -1.31991 -5.26526
        4.82336 0.215778 0.232954
        0.361688 1.19543 0.682127
        0.524204 0.512085 3.68571
        -5.93347 1.39114 1.42188
        -0.0480396 -1.84308 -0.750254
        -2.93622 -2.34744 -1.83222
        3.65455 -4.84206 -3.2352
        -0.35714 -1.67572 -0.47595
        -0.00921961 -0.231879 -0.627655
        1.45104 -3.31801 -3.67471
        -0.0896635 -1.26414 7.83667
        0.580142 0.417679 3.63596
        0.303005 -0.333165 0.351336
        1.91549 1.70667 0.0579419
        0.232818 -0.103398 3.67145
        0.525578 -2.47002 -0.362464
        3.08747 -4.41372 2.92622
        -4.61589 1.58867 -1.4288
        3.33072 -3.94438 1.80996
        -0.230503 5.97424 1.25093
        -2.06919 0.521811 3.66435
        8.01124 -1.66483 -0.897442
        -0.451893 -3.75461 3.77805
        4.05215 0.65698 -4.47586
        -3.33656 2.88637 -1.78273
        -3.51787 5.71005 0.479435
        4.88446 0.308582 -0.387227
        -2.02436 5.22839 -1.95608
        -0.781688 4.05891 2.16473
        6.34917 1.31016 3.48157
        0.772041 -5.14104 -1.41186
        -2.59647 -1.80017 -6.5182
        3.22194 -2.3699 -4.43521
        3.92121 -3.97452 -1.55389
        1.63705 -1.84579 2.62796
        0.69307 3.9968 4.52476
        -0.384208 -2.90874 -2.99653
        2.06871 5.51396 -1.06289
        3.49199 -2.88032 -0.944873
        -0.238891 4.49969 1.47489
        0.210174 0.568189 -4.06027
        1.63348 4.0926 2.34386
        3.01058 -2.47655 1.1783
        0.683949 2.37541 4.56827
        7.50866 0.263251 -0.447537
        0.4447 -1.90852 3.17054
        0.608402 -2.89384 2.13686
        -2.89659 5.19156 -2.99619
        -0.60589 -3.64912 -1.288
        1.75031 -1.0832 3.19541
        2.37439 3.15142 -4.57127
        -0.952075 1.90769 1.53387
        -0.0711457 1.33669 -1.24947
        5.26691 1.63472 0.285736
        -3.73749 2.22634 3.24074
        7.51419 2.52042 -5.15805
        0.766693 -2.43224 1.90009
        -0.336728 4.56671 -6.18506
        5.48242 0.171438 1.16237
        -2.89323 2.36438 -0.155826
        -2.68552 -1.80144 1.07968
        0.244073 1.81729 -3.89347
        2.80229 -1.69796 0.771353
        2.63479 -4.32543 0.192362
        2.97758 -5.29749 -3.79459
        -2.93927 -3.20043 2.23468
        -2.82575 -1.8626 0.520254
        -5.24054 -6.0168 2.03684
        4.61925 0.430766 -2.29403
        -0.468016 -2.58335 -1.2793
        -2.37523 0.457475 -3.83931
        -1.1641 -0.0993805 2.12551
        4.0336 -1.28568 4.42511
        2.25247 1.20921 3.86479
        -1.25814 2.94105 -0.286138
        1.86933 1.89368 -0.339022
        -2.36931 2.98497 2.46011
        -1.95084 -0.451535 0.142023
        0.960605 5.20142 0.931703
        3.30364 0.816204 0.0134864
        1.99567 5.18678 2.46471
        0.520851 1.00437 1.89211
        0.0881966 5.46839 0.307106
        2.30369 0.852622 4.68843
        1.87725 -2.54393 2.78204
        -7.18534 -0.548623 -7.51894
        1.14325 -2.44908 2.45355
        -0.917448 1.53402 -5.56608
        0.826289 -0.769543 1.08266
        3.36351 -0.930305 -2.73971
        1.6752 -2.0478 -1.0221
        1.13908 -0.667973 -3.04687
        1.47773 -1.69105 -4.3224
        -0.299482 -3.263 1.20261
        3.48371 -0.756859 -1.57983
        3.59377 -0.6975 -0.181193
        -2.68727 -1.76009 -1.87543
        1.58278 0.339157 -2.2929
        -7.76785 0.792357 -1.53898
        1.80308 -1.61706 -1.00162
        2.45237 -2.28794 -1.94896
        3.25823 -3.95139 -1.81794
        -2.4905 -0.058762 -3.75007
        4.16003 -0.942133 -6.10955
        2.77089 -0.292222 1.10298
        2.47638 -0.365881 2.23195
        3.3409 -0.0878119 4.32872
        7.05274 2.05371 -1.23896
        -4.22501 1.21964 0.889875
        0.780381 -0.152592 4.11125
        2.95757 -0.300425 -2.70183
        -0.645787 -2.2021 -4.38982
        2.45242 -3.01457 2.23833
        -3.97134 -0.277712 0.516803
        -3.05279 -0.288443 -3.37582
        -2.5469 0.322671 2.54164
        1.65646 -1.55388 -3.31178
        -3.37424 -0.0666268 -1.73173
        -0.546321 -3.69354 -3.34419
        1.65768 -2.38027 1.56251
        6.21022 1.4489 1.79787
        -1.82105 -2.28145 -3.88286
        -1.07926 0.0306323 -3.49014
        -0.253918 3.97956 0.397819
        -4.56025 -4.00932 1.28985
        -7.22801 1.31797 -2.86356
        -0.898633 -0.254256 -2.17957
        0.990232 -0.217581 -1.04396
        3.57227 -1.86281 -1.24983
        3.99825 2.33464 -0.636843
        0.793961 -2.14157 1.30632
        -1.0819 2.95101 -1.1076
        2.7766 -3.25174 -2.91394
        -0.161101 -2.13434 -0.316796
        5.76288 -5.6124 3.76055
        -0.211442 -0.215602 -1.39126
        2.4563 -0.0565286 1.91946
        8.15831 -3.06162 4.09567
        -1.73053 0.497485 -1.53906
        -1.96807 0.0694039 -1.9307
        1.22537 2.48163 -2.46241
        2.31735 0.964821 3.96412
        -1.42136 1.08994 -2.72613
        3.4402 -1.53478 0.955075
        -7.64779 0.243576 -1.35999
        0.3815 -3.21431 -1.45517
        4.97844 3.17609 2.50176
        2.1247 -0.874488 3.47904
        1.13085 3.59912 -2.15834
        0.532129 0.688607 -2.51913
        7.01151 -1.93233 -2.87104
        2.03527 1.68606 2.95913
        -2.66246 -4.04751 -2.73315
        5.23884 -1.53487 -1.52929
        1.84612 2.089 -0.0783826
        -0.0630331 -0.679032 -5.31737
        3.14296 6.8279 2.96444
        -0.00941662 -5.34752 -1.14901
        -3.49397 -0.0523943 0.625555
        0.309564 7.42894 -3.11492
        6.29803 -1.0435 1.61859
        3.70437 0.901335 -1.44229
        1.02042 -3.19618 4.26166
        2.63886 -0.0454201 3.51642
        0.19579 0.345979 -7.82495
        -1.3741 -2.2431 1.92179
        2.70879 2.75087 -4.35155
        -0.387839 0.428632 -4.37653
        0.89789 4.48942 1.09519
        2.98145 3.53072 1.28445
        -0.969634 -1.61856 1.77057
        0.527601 -0.44375 -5.86078
        3.16243 2.94765 1.9952
        0.239533 1.77388 2.28729
        3.87619 0.554168 1.62836
        -0.0919376 -2.48966 -1.86848
        1.89084 -2.09991 5.20503
        0.196655 -3.79008 -1.23083
        -0.743308 1.36399 4.99247
        1.723 0.766646 -1.17101
        -1.35199 1.66972 -2.13618
        1.64952 0.270556 -3.28091
        -1.30387 -3.40837 2.63442
        2.26559 -2.52558 -1.60714
        -0.95813 5.28876 -0.916476
        -2.71685 0.860342 -4.71223
        -2.25852 -3.02509 1.41528
        3.69793 1.78923 2.49545
        -0.279691 -0.359112 -8.34719
        -0.0501875 1.07202 -2.67977
        2.00429 1.23798 2.6276
        6.33725 0.480311 -4.58828
        2.68677 -4.16551 -2.84677
        -4.29111 1.05174 -6.60339
        -0.531718 1.12176 -1.49723
        -2.15644 0.584755 -1.20298
        -0.138665 -0.071859 0.926795
        1.33058 -3.21105 0.197504
        -1.02927 -0.330276 0.788925
        -1.70987 0.577875 -0.144146
        -0.840705 -0.180928 -1.03673
        1.46451 2.94656 -1.8779
        2.32228 -0.120301 2.05531
        6.51305 -3.88218 3.25619
        2.22811 1.37356 -4.33197
        -0.604843 2.71442 1.80158
        4.98086 0.327469 2.49117
        2.74127 -3.98639 -2.25005
        -0.149056 -2.38959 -1.11162
        -4.75304 1.81695 1.05915
        -1.38551 1.64728 0.0860524
        5.12312 -1.57561 -3.67574
        3.49085 -0.851432 -1.45
        5.21283 1.56972 -0.969691
        3.28989 3.15843 2.97844
        -3.27455 4.33796 -0.347725
        -2.19264 -1.66543 -2.56865
        3.35607 2.14976 0.99377
        -1.67125 -2.50948 2.29412
        -1.01374 -0.0161817 2.83215
        -1.23106 -6.24423 -4.28876
        -5.48092 -4.55679 1.02543
        -4.27148 -1.69163 -2.15505
        0.986584 2.45051 2.09841
        -0.480272 2.20098 2.62274
        -3.49518 3.14687 -3.20906
        0.253605 -2.1078 4.79488
        4.8032 0.262404 1.20193
        1.64766 -0.525428 -0.407507
        1.37768 -2.89647 -3.89369
        0.259297 0.505125 -5.48152
        -3.75688 -0.235031 2.30883
        -2.61285 -1.36166 5.29226
        -4.62156 -0.850845 -0.46693
        -0.304629 -0.762769 0.0596257
        1.57755 1.72492 -1.4235
        -4.63728 1.22454 3.67017
        2.81412 -5.67681 -4.70858
        0.924459 -1.81822 0.473073
        1.37384 1.88455 -0.0835385
        0.185442 0.521435 -0.119415
        -3.7638 2.75374 1.8739
        -0.806786 0.992123 -1.13073
        -2.80702 0.808937 2.00678
        -2.34868 -0.487774 -1.16317
        4.89386 1.25657 3.07998
        -0.488211 1.86813 0.505083
        -2.12568 -1.04472 0.305924
        0.303185 -1.04157 2.71162
        -0.489954 1.34916 -3.45879
        4.1464 -4.70887 0.161767
        -2.92215 -2.13215 -0.0119167
        1.15397 1.35878 -0.28155
        -1.79256 -1.04932 1.83763
        -0.898443 -1.9627 -3.15153
        -0.567872 1.79428 4.24823
        4.41844 -1.78806 0.458523
        -0.867663 3.77492 2.22625
        -1.66204 7.4775 0.519979
        -2.59249 -5.28531 -8.13385
        -1.0041 -1.59261 0.330933
        1.33782 5.75405 -0.553916
        1.78024 -3.00823 3.61866
        2.06504 -5.19196 -2.02192
        3.03999 1.63496 -1.18677
        4.66071 -2.77441 -4.28865
        -0.516669 1.25551 -0.521292
        -1.196 -2.15762 -2.84229
        -2.32798 0.349002 -4.49173
        -1.06271 1.08411 2.0373
        5.01292 -1.95026 -0.722092
        5.31454 0.675091 -4.32337
        -4.28584 -2.05729 -0.222472
        -0.734025 1.36966 0.0374876
        4.28466 -5.59383 -0.29645
        1.25032 0.739833 0.280835
        4.04688 -1.59487 0.239374
        -0.900986 0.566429 0.743785
        -0.58148 -2.1943 2.09531
        0.797128 -3.67585 -2.54638
        3.45597 5.02984 -0.304413
        -0.00325314 0.390551 -2.7992
        1.67419 0.451223 1.021
        0.545182 -4.74075 1.29238
        0.423744 -1.3864 2.51126
        -0.571163 -3.19606 -1.2928
        2.34396 -1.70687 -1.93263
        -1.12521 -1.16392 -2.68718
        -2.17016 -0.262018 -1.08113
        -2.422 -0.640778 -6.68212
        3.1369 0.15957 -3.40387
        -1.75874 2.1798 -0.640242
        6.1248 1.6705 -3.94469
        1.59799 -1.81198 -0.991713
        0.607353 -1.44477 -2.25226
        -0.690448 1.25573 -0.665653
        -0.338825 -1.1326 -0.25314
        7.20828 -5.14846 -1.9612
        -0.15958 -1.50433 3.85793
        -2.47708 0.295194 -4.66552
        -1.74977 0.628288 -1.60364
        1.71479 -1.37024 -7.60428
        2.04466 -3.3475 0.406618
        -1.79111 -1.67099 2.39415
        -1.16747 -0.243511 0.383213
        -0.338121 -1.89369 3.45537
        2.8182 3.57494 -4.10637
        1.04686 -1.40477 0.0037864
        0.280581 -0.391803 1.28784
        -1.73552 -0.625756 -4.22274
        -3.44127 -3.76162 -0.646016
        2.1532 1.23389 0.72437
        0.545915 -0.182416 0.443172
        4.07875 -2.71094 -4.23361
        0.239855 -6.83449 -0.259169
        2.87701 -7.21718 -1.07269
        -3.09011 -1.95601 0.103887
        -2.30847 -0.610943 -0.842373
        -1.69266 0.640462 2.01489
        -2.04462 1.77892 -2.29525
        3.8858 -1.11178 -2.83897
        -0.0797168 0.928126 -4.67859
        1.46238 -2.57819 3.10942
        -0.255269 -3.07098 -0.183941
        1.44193 0.843609 3.77096
        3.40753 1.25928 -3.03767
        1.46074 2.63415 8.08139
        4.30116 -0.0501414 -3.97604
        -1.41702 -1.7601 -0.334479
        -0.642086 -0.151904 1.52214
        -0.271211 3.72552 2.2394
        -1.19603 4.34783 4.48734
        1.01706 -2.66677 2.79285
        -1.0746 -1.72893 3.02963
        1.71458 -0.914103 -3.02623
        -0.0415523 0.715906 -4.62633
        -0.505875 1.0602 -0.0542206
        0.0153851 4.35569 -1.32868
        -2.97571 -0.51586 -0.957555
        1.33623 6.61645 1.50128
        2.32637 -3.36792 1.99613
        -2.92785 -2.87393 -1.37877
        0.322956 -1.5777 -2.32237
        -3.59696 3.81381 -0.94283
        -0.293807 3.23127 0.972725
        -1.02549 5.21072 -2.08702
        4.73041 1.43104 2.65255
        1.27488 -1.13615 -3.32465
        -0.404964 -2.4266 -0.725496
        -1.21653 2.87956 -5.03944
        -4.01929 -1.92642 0.934451
        -1.04449 6.71527 0.0864113
        1.58192 -1.80611 -0.284472
        0.0715159 2.27357 0.939985
        2.45547 2.67826 -0.660698
        1.09429 -3.77924 -0.52559
        1.16743 3.59164 3.62416
        1.3459 -3.00788 0.247344
        -3.2603 -6.7548 -6.12391
        -0.571761 3.93323 -5.37411
        -3.45281 2.0416 1.80133
        1.2961 2.1161 -1.98631
        -0.674477 6.19295 -0.165947
        2.29716 1.59965 3.8481
        1.66347 -2.29174 -5.44772
        3.24117 1.4921 -2.89279
        0.355006 3.53502 4.45461
        4.29155 3.21048 0.895166
        -0.24521 -1.17662 -6.00313
        -1.23703 -1.08113 1.71155
        -3.33507 -1.79224 -2.2508
        -1.80203 2.26204 -0.0211527
        -3.4776 -2.0863 1.16464
        -1.37139 2.11883 -0.886052
        -0.554388 0.999548 -0.0158254
        0.452676 -2.50198 1.29574
        -1.30259 -0.917502 -4.35321
        -0.0983112 -2.32329 2.98781
        1.57126 -0.539909 -2.09788
        -1.00259 1.65682 1.59121
        2.13307 -0.499066 -1.52188
        -1.04814 1.72472 -0.144797
        -2.08839 3.57881 3.97341
        -3.14466 0.493232 -2.34689
        -0.0336446 0.1204 2.8362
        -2.5487 -1.7993 -3.02324
        -4.16893 0.787428 -3.88737
        -0.0159063 -0.11425 -3.95211
        0.687586 0.616788 4.26597
        -0.766652 -4.1159 1.51901
        -2.31985 -2.56189 0.341736
        -7.46436 0.118689 -3.61574
        -0.767363 -1.33507 -2.03582
        2.75653 2.64876 1.90661
        0.860098 -4.47659 1.37099
        2.52333 1.06735 -4.07226
        -5.29808 -0.988754 1.60753
        0.872228 -0.144243 -0.689914
        5.19265 0.427262 0.331298
        2.70378 6.59386 1.6683
        -0.47139 -0.741525 -0.867268
        0.664947 0.880898 -0.672933
        -1.95608 -3.3201 1.05887
        -0.922416 -4.54136 -1.80429
        0.884906 -6.06113 -1.93809
        -0.567406 0.241975 1.66863
        1.91238 0.704776 -6.39991
        0.212779 4.51397 -1.32609
        7.17692 0.481465 2.45126
        1.66037 -3.59114 -0.0496352
        1.67208 4.77614 -0.797869
        -1.96841 -2.06321 4.87037
        2.65551 3.8823 -2.09497
        -2.18507 3.63896 -5.84899
        -0.0780375 2.95708 3.40876
        0.188548 3.00637 -1.28616
        2.46715 4.54517 -1.2894
        1.16188 0.0395106 3.67436
        -0.275233 0.0107733 5.55126
        -1.24588 -3.04589 -1.81891
        2.04703 -5.68528 -1.29068
        3.28884 -5.34061 2.70353
        -6.7322 -0.115586 -1.21512
        1.81521 -0.822359 -1.33572
        -4.28824 -0.251829 0.330751
        2.13445 1.25471 1.02616
        3.8247 -0.915366 0.311671
        2.87046 -0.19622 1.63855
        0.938428 -1.45934 4.16296
        1.2965 -0.395988 -1.93285
        4.2661 0.356202 0.933128
        -0.523245 -1.47322 -2.14536
        -4.19945 2.3787 -4.18364
        -3.71159 -0.980369 1.40761
        1.85562 -4.77752 -0.881256
        -2.74018 0.477157 -0.0960661
        -0.779345 -1.10898 0.777542
        -1.46304 -1.08646 -4.56815
        -1.38352 3.15588 3.67289
        0.0989283 1.30902 -0.304836
        1.84336 5.68865 -0.706401
        -0.247521 0.904258 0.39852
        1.60582 3.02962 -2.22988
        5.32127 -1.32643 -6.19616
        -0.581429 2.58571 0.239903
        2.63901 0.947931 -1.00996
        2.75463 -2.94111 -3.37788
        -1.25938 4.3628 -2.75757
        4.0015 -2.62699 3.85299
        -0.0206597 2.54188 -1.12051
        -2.15454 -1.89583 -3.0379
        -3.10687 2.71333 0.23748
        -1.93166 -0.295638 -3.69395
        6.25517 1.33627 -6.48248
        6.51321 -7.20593 -0.305801
        1.16528 -2.73561 -5.27624
        -0.544302 6.49292 0.0893103
        1.0531 -0.551185 1.27881
        -2.63598 1.48048 -2.18537
        2.43211 1.26497 0.27179
        6.62352 -2.23778 -0.992576
        2.00661 -1.48618 0.104129
        -2.01044 3.50586 -2.9942
        -1.33073 -1.21205 -4.50642
        2.99249 -1.34006 -2.22789
        2.8537 -4.93355 -3.80587
        -0.681756 -0.172436 -3.09602
        -1.43195 3.85813 -2.20416
        1.58442 -5.38874 1.07998
        -2.0968 -1.77814 -4.8377
        -1.39748 -4.79086 -0.650131
        1.69368 -2.17098 -2.5328
        -2.96799 -3.25017 -1.88781
        -2.38474 1.68121 -0.802051
        0.91213 0.462394 0.37162
        -2.35032 1.28461 -3.63072
        0.927538 -4.41845 2.1728
        2.08598 -2.05778 1.50645
        -0.406871 -0.427391 3.98416
        0.299536 3.98026 -5.4037
        0.698803 -0.712796 -4.86642
        3.40491 -2.61797 1.37214
        3.05315 0.963801 -0.988195
        -1.46184 0.501071 -3.43338
        3.94425 -0.762042 -0.936787
        2.72237 -1.92087 2.86538
        -2.20899 1.10683 -2.15173
        1.23241 -0.884596 1.46078
        1.36279 -1.25125 -7.67186
        4.89401 -2.26313 0.129002
        -5.30489 -1.03553 2.11393
        -3.82062 -1.74046 -6.19911
        0.420036 -1.54677 0.324599
        0.143981 -2.90405 1.61897
        1.79392 5.2599 -4.95455
        -2.49046 0.999637 2.30992
        6.31575 -1.02627 -0.597094
        -0.584614 2.68826 4.39712
        -4.66779 -1.71024 -0.224201
        1.43373 -2.10818 2.83956
        -1.9988 0.609675 -0.475841
        0.95174 0.17359 -4.41615
        -1.18993 -1.60702 -0.497451
        -1.51478 -3.79995 -1.17246
        -2.39178 -1.02236 -0.253695
        -2.29903 4.62905 0.852634
        -2.91308 -5.10444 -2.00953
        4.81551 5.45022 -2.72913
        0.781814 2.49304 2.58643
        4.21345 0.32278 1.79305
        2.06138 0.247501 1.6564
        -2.39609 3.61655 -2.48881
        2.20528 -0.549686 3.07112
        1.15698 1.23809 -3.27063
        0.113016 -2.61973 0.925719
        2.59432 0.691508 -1.00903
        0.693888 0.0744364 -2.65768
        3.35567 3.01023 -1.30595
        1.99485 -1.61773 -1.04164
        -1.9208 0.69913 -0.627295
        -0.273118 0.207611 0.20507
        0.546523 0.315037 -0.0707349
        3.55018 0.762643 5.37732
        3.77467 2.78562 4.22382
        -2.51063 2.73698 -1.09802