<?xml version="1.0" encoding="UTF-8" standalone="no" ?>
<VTKFile byte_order="LittleEndian" type="UnstructuredGrid" version="0.1">
  <UnstructuredGrid>
    <Piece NumberOfCells="0" NumberOfPoints="15094">
      <PointData>
        <DataArray Name="velocities" NumberOfComponents="3" format="ascii" type="Float32">
        -0.725884 -0.445799 6.298
        -1.38901 -3.8854 -3.46602
        5.19281 -3.53824 -1.63411
        -6.65963 -2.84178 0.193375
        3.64515 -3.05251 1.31366
        -2.24227 -2.69313 3.52434
        1.45616 6.47951 -0.53355
        3.62135 -1.21793 -5.74044
        -0.674699 -1.80908 4.38075
        1.50067 -0.191498 1.11595
        0.292625 -0.76802 6.93086
        -3.69538 0.280953 -2.26398
        -1.21809 2.26511 -2.87751
        4.94723 0.0018366 5.6025
        2.14359 -0.816515 0.587574
        3.79734 2.45687 0.205498
        -2.00218 6.03752 -1.4309
        0.497789 2.84451 0.223714
        -2.59108 -0.888949 -0.799686
        3.4918 6.97405 -0.650282
        -5.15731 -2.10152 -0.00983251
        1.87879 0.230887 5.40495
        5.30889 -1.91014 0.779262
        -2.18753 -1.30164 2.60393
        0.383735 -3.12745 -1.86607
        -2.47278 8.49972 -2.51586
        -0.174376 -0.131923 1.19821
        4.64147 3.7698 2.35112
        -3.30414 -5.71544 6.34581
        -1.79878 2.4937 0.0758742
        -2.48681 1.58335 2.29549
        -1.13185 5.17272 5.22827
        -1.44069 -0.105322 -3.65635
        -2.48638 4.81055 0.816756
        2.46792 -3.82866 -5.27206
        -5.87339 -5.04957 4.65278
        -1.0294 -1.75097 0.881638
        -5.98958 -5.8973 0.330301
        -1.74045 -3.67723 1.70822
        1.52516 -2.71995 -5.54961
        0.852946 0.16091 4.43973
        -0.788224 -2.50431 -1.71107
        2.23547 0.665967 1.68178
        1.1346 0.0134832 -0.936582
        -0.895805 -1.94611 1.08632
        -1.8877 2.40599 4.11549
        5.58269 3.88833 -1.59301
        -3.15046 -2.23915 -0.619442
        3.50962 0.220633 -1.12956
        1.77332 -0.0292904 3.60717
        -0.981531 -2.29075 -2.65959
        1.49781 3.88661 1.51424
        1.4604 0.875055 2.1793
        -4.1888 1.00952 -0.0442661
        -3.19357 -2.4496 0.674176
        -0.0039619 1.13742 2.05311
        2.17236 8.33886 0.493625
        -2.8548 4.01657 -0.195456
        0.316536 -5.21868 -1.98018
        -3.96467 5.16784 -0.273758
        -0.113837 -2.1512 3.24765
        -4.15328 -1.14487 -2.71906
        -3.52062 -1.85632 -5.05956
        1.57743 -0.280028 0.887941
        -0.0782487 4.21579 -2.85593
        1.48038 -6.42372 1.70906
        2.12096 0.643421 -5.24993
        0.742567 0.682097 2.18493
        1.86524 -5.32369 -5.21243
        1.64004 -0.411253 5.04015
        4.42209 1.43704 -4.45985
        2.05131 -0.456767 -3.25523
        9.42248 -2.60921 -0.272686
        4.75022 -0.535568 1.44065
        2.94305 -1.66209 -7.15869
        -3.99798 -1.64713 -4.15305
        -4.52851 4.85218 -0.363421
        -0.063057 -1.32154 -3.6558
        3.51035 -4.04688 3.08951
        5.04116 -0.115543 3.59104
        -2.24699 -7.11742 3.14448
        -4.88231 -0.923611 7.4417
        4.28378 -3.85402 3.21546
        -3.4122 2.12963 2.27878
        -4.23567 2.52257 1.2645
        -0.769728 3.03079 -0.16609
        0.239591 2.27578 -2.89467
        3.1226 -1.66614 0.185327
        -3.61766 3.6653 5.07448
        -0.619014 -0.460854 2.56791
        1.70269 1.90397 -3.64469
        3.10033 -0.934608 5.90984
        0.0367099 -2.8552 -7.44265
        -2.13638 -2.11536 0.926848
        2.52533 -1.08988 -0.128488
        -1.61359 -2.96224 -4.09263
        0.85721 -3.30934 -2.19098
        1.84294 -1.05582 -3.7515
        3.58212 -7.4792 1.78215
        2.80872 -0.923724 -0.903329
        -1.67433 -0.649745 1.37485
        -7.60563 -1.04761 3.98941
        -5.76146 -5.81601 -2.42131
        0.178896 -2.04836 3.19544
        0.816691 -3.42759 -0.774165
        -0.0160651 -2.14224 -1.85013
        1.11439 -1.00925 -2.86119
        11.9351 8.9094 1.02813
        3.04271 -4.96184 -1.70845
        -3.07882 0.579931 -4.75733
        -1.26386 2.38688 -1.48398
        -1.09817 -3.93316 4.3102
        6.69915 -0.949338 2.40163
        1.5645 -0.0335054 1.10664
        -3.80958 -2.78497 0.581042
        -1.75657 -4.31419 -1.50401
        -0.0958315 0.909875 -1.16195
        -1.97663 5.81243 -6.15195
        -1.31494 1.28217 -1.10897
        1.28905 -5.08382 1.909
        0.4958 -4.29401 1.84941
        -4.00599 1.94694 -1.30103
        2.03669 -5.83094 -4.21776
        1.50922 -0.643719 6.47273
        3.11861 -3.13754 -3.66338
        -3.4663 -3.90378 2.07317
        0.550062 -1.69244 1.23925
        2.26382 4.78113 1.58875
        -3.01214 -0.877941 3.58809
        -0.104121 2.65385 -2.98942
        0.0233028 3.05707 -7.32632
        2.69492 -3.28534 -7.78736
        -4.26294 2.50333 2.19548
        -3.40166 -0.901722 0.27503
        3.85846 -0.0809614 0.157176
        -2.73645 -0.931498 -3.64071
        2.27042 -0.601114 -0.722828
        2.784 -1.36327 4.4479
        -1.79253 2.97645 -8.47602
        0.901953 1.04806 4.66305
        -6.30819 -1.01627 -0.339279
        2.52473 -2.15725 1.80099
        3.6879 6.37894 -10.14
        3.81638 -0.790791 6.99903
        4.51227 -1.31012 -3.66131
        3.95079 -1.15901 -2.87781
        2.86373 1.2311 -3.02425
        0.0867526 -3.26718 2.38765
        -0.378467 -5.05442 0.841102
        -2.68582 -3.1228 -7.05414
        -0.86253 -1.77458 2.89907
        1.00747 3.59839 1.74294
        4.01857 5.10192 -3.10517
        -2.98919 -2.48889 3.0957
        4.03646 -5.67519 1.12725
        -4.42848 3.99561 -1.77793
        2.12571 -0.506596 6.00122
        -8.65916 2.58935 3.51299
        -1.10268 0.411806 1.57411
        -0.493771 -2.64666 2.2579
        0.543372 -1.28061 -0.145528
        -2.41814 1.91615 1.68439
        5.69366 -1.2779 -3.16647
        -3.65899 -0.739755 -0.280225
        1.56477 -1.73148 -4.56517
        -0.950903 0.171848 3.86235
        2.87411 -0.671844 0.372867
        -0.823492 6.31301 2.07274
        2.70045 -1.1863 4.34747
        -5.19165 -3.06648 2.25949
        1.54817 5.44505 -2.12293
        3.67327 -4.34931 0.629874
        -4.24697 -3.97273 0.982736
        3.10242 -5.94043 5.09008
        5.32366 6.68989 1.38991
        -3.17171 -2.93493 3.07752
        -3.50104 2.67748 5.58578
        -0.108522 -1.99279 0.91196
        -1.5879 1.67836 3.4593
        -1.69041 -0.129003 3.96929
        3.50442 -4.19415 4.51764
        -1.64502 -3.93681 1.70968
        -0.730743 -0.730339 2.17124
        -4.37083 4.84361 4.52479
        4.76432 3.66139 8.5993
        -4.09198 -4.05613 4.5589
        2.82301 -0.897856 4.3483
        3.51957 0.251223 2.0207
        -9.40085 -5.3648 8.49569
        -6.77726 2.65478 2.77775
        5.39181 -3.31799 -3.16618
        -2.25361 3.09677 1.17297
        -5.35865 -3.40923 -0.297711
        0.559518 -3.72867 -1.09567
        -4.69584 1.02385 -2.73731
        -6.87108 -0.243322 2.92706
        1.07352 -0.302595 -0.481127
        6.96215 1.36785 -2.14408
        0.920481 0.362669 -3.16808
        -0.854689 3.3844 -1.83268
        -0.383241 -3.52423 -2.53177
        -3.64816 6.46481 0.940732
        -4.54305 -1.05454 2.93846
        0.775014 3.94022 -0.747463
        -3.3755 3.21798 -3.29541
        7.42074 4.6702 -3.41387
        -5.05817 -3.21251 -4.88092
        -0.567538 -2.59513 4.49583
        -8.05153 8.35502 -3.32141
        2.87483 -0.362567 -5.55549
        1.17527 2.22272 1.57316
        2.90246 4.20075 -0.0949381
        -3.9646 -0.925275 -1.96408
        9.20653 1.56606 5.93328
        -1.52615 4.32758 -1.2424
        -4.88193 -9.99398 -3.98852
        -3.25147 2.59802 -1.64511
        -1.18771 -3.08315 -2.50322
        2.6509 -2.3049 -0.777469
        -0.612662 -4.63661 4.999
        -3.1027 -0.636235 -3.39725
        -0.966857 -6.22501 5.26221
        1.14567 -1.26015 3.39553
        -6.31081 6.13823 -6.04276
        2.52456 -5.21662 -3.78509
        -3.49167 -4.48928 -3.57484
        -3.887 -4.40247 -2.87953
        0.335955 -2.9275 2.29295
        1.98453 -4.28533 2.20606
        -3.7217 5.80912 -7.32945
        2.5894 2.82556 -2.93759
        -3.88804 -1.02643 -5.20926
        -2.48202 3.01612 -1.27885
        -0.0166762 -1.92493 -1.14529
        -2.35723 -1.50524 1.35264
        -4.81454 3.11041 -3.65855
        -5.22149 2.13802 -1.70316
        -3.05261 -1.64768 -3.50506
        4.57741 -1.03225 -0.264037
        1.74406 -0.805289 3.57966
        -1.1804 -2.30269 6.32106
        -2.95182 -3.77018 -3.71519
        -1.93313 -6.78775 0.841668
        -2.36215 0.262924 -0.141771
        4.1015 1.10268 7.38204
        -3.33137 5.74175 7.11517
        2.93096 -0.495131 -1.36044
        2.61821 -5.41932 -3.34098
        -2.18214 0.278913 7.6025
        2.76752 1.07868 1.27049
        -6.05577 -6.13077 -3.52533
        -6.59176 -0.799966 3.72422
        3.06936 2.40597 2.51113
        0.191694 2.13217 -0.652116
        8.81454 7.99463 2.00697
        -1.61757 -0.70468 1.67797
        5.15097 1.62588 0.413921
        -3.36213 -4.5412 -0.648736
        3.69248 3.77689 0.948734
        -2.38148 2.13441 -7.6485
        -4.19916 2.86341 -6.16183
        -0.316919 -0.719045 0.395879
        3.26415 0.651356 -0.184399
        -4.19684 -3.33006 -0.672563
        -4.69149 3.50807 -0.86606
        -0.453555 -0.985997 5.46837
        3.38341 -4.91159 -7.66059
        -3.15773 2.67772 -1.58299
        -2.87011 -3.83593 -0.380366
        -1.6584 -2.21713 5.14766
        -7.52851 0.237616 -1.11421
        -4.01771 6.26275 -2.19593
        -5.93416 4.15546 -0.484738
        -0.609312 -6.90681 -1.57953
        1.30761 7.84016 1.4795
        3.55194 5.14145 2.04456
        -4.15909 3.20021 6.50485
        1.50945 -0.409968 2.75817
        -8.98673 2.68125 6.21729
        -3.51264 -0.707188 3.10231
        0.383681 1.15247 -1.21688
        -5.36528 -1.5368 -3.82256
        -0.433314 0.935385 -0.177909
        -3.19113 0.925169 3.77849
        -2.77037 -4.3001 3.43418
        2.10342 0.871052 -2.11022
        -0.914268 2.05471 -2.19782
        5.45121 -0.842848 -0.252701
        1.2827 0.35528 -5.39154
        2.67134 3.15662 -5.10025
        -3.01947 3.63786 -3.4107
        -1.65024 -1.34988 -0.319236
        0.384671 -6.60064 -5.32668
        -0.698395 -1.33791 -1.51322
        -1.34365 -0.455605 10.3969
        -6.34818 0.417556 2.95763
        3.17966 -3.70688 1.56383
        -0.930043 1.63391 1.27219
        -1.94006 -0.997679 -2.43697
        -2.53694 1.17931 -0.496976
        1.21095 4.30559 -2.77372
        -0.449579 0.523131 0.557351
        -7.96877 0.517961 6.09999
        0.404564 -9.17815 -4.52031
        -2.96101 -0.00635751 -2.96596
        -1.09195 1.13189 9.05863
        -2.40795 -4.56964 -2.45801
        -1.37585 6.48797 -3.59179
        0.0341739 -1.13163 0.551884
        0.366187 4.14783 0.133927
        -4.6666 4.50524 -1.23762
        1.00015 2.61076 3.53644
        2.25245 1.07429 -1.09514
        1.98565 5.32596 -2.08197
        -4.6164 4.91864 -2.83129
        -1.47962 1.26602 -1.75275
        4.20993 -3.49567 2.25491
        4.01664 4.81658 0.862485
        1.133 3.41423 -5.43442
        -3.00735 2.71403 -0.328086
        0.893228 -1.6051 2.56123
        2.70272 4.81088 -2.02457
        0.372233 1.25179 -5.16909
        -2.06959 -3.14825 2.28898
        -5.90412 2.27722 4.63755
        -4.13309 2.93444 2.44414
        -4.88684 2.29897 -4.79715
        -4.08997 -0.775919 2.28119
        -3.43719 -2.01758 -0.631643
        4.03545 0.174911 5.23489
        3.8431 5.33319 4.06518
        -2.98602 -1.64476 2.78979
        2.65411 4.49218 8.03513
        -1.98122 -3.9618 -1.47926
        -2.10205 1.86506 2.81399
        -0.781347 -2.88228 1.60807
        -6.12201 1.14958 -1.51954
        0.777233 3.0896 -0.328275
        -0.949879 -3.37068 2.97234
        -2.37583 0.0694027 2.43425
        -5.851 3.24992 2.32372
        -4.49205 -3.9877 -2.94714
        -6.71958 -4.67539 4.44823
        -0.169586 0.751399 -7.67879
        -4.9981 -1.57928 9.67627
        -5.75432 0.157218 4.63591
        -2.11806 -0.19793 -1.60556
        0.325646 3.31601 3.3239
        -4.07789 0.102025 -0.0506327
        -5.49994 -0.167894 -7.29397
        2.97448 1.93608 0.619506
        -0.780888 -3.20121 2.57338
        -1.54873 1.28678 -2.19343
        -3.24165 3.68195 0.68253
        -1.14385 1.16579 -3.77088
        2.4309 -0.767027 -2.78908
        1.4374 1.67841 5.8593
        2.17929 6.62875 2.0901
        -0.815001 -4.69471 -4.75403
        4.04535 1.17423 -7.31969
        1.18526 -0.134526 2.10641
        -5.52383 -1.82627 -2.93441
        0.951571 -4.40285 1.16747
        1.69239 3.23113 0.642132
        0.59647 -4.17198 4.13656
        3.13053 5.54939 6.45615
        -4.92374 1.98383 -0.490978
        5.06944 -1.85567 1.22773
        -2.1481 -1.58303 -3.44019
        0.88993 3.7571 0.835406
        -5.98354 -2.19441 1.6219
        -4.56103 6.03717 -2.36208
        -6.09106 -1.58074 5.02624
        3.64755 -2.18422 -1.31075
        -1.10421 -3.97713 -2.08378
        -0.637107 6.12715 -3.7009
        1.63133 -1.77293 -2.45787
        -4.87335 0.354301 0.824248
        1.74732 -0.240584 -1.81993
        2.18535 -4.40457 -10.5758
        1.96303 2.85155 2.45583
        -0.82027 5.02877 0.116723
        -5.0128 6.27403 -0.591199
        2.64757 -4.76939 -2.1244
        0.165989 -0.0833879 2.1354
        -1.00404 -3.20417 4.31187
        6.1786 2.39761 -0.980777
        -0.358674 -1.95696 -3.24532
        0.661088 -3.77642 0.725847
        -1.66456 2.99112 5.7732
        -2.84993 1.05873 4.11534
        1.24695 -2.90029 5.12048
        2.26954 1.67479 0.923378
        4.0097 -1.70811 -1.76294
        -0.0313146 6.86973 -0.661394
        -1.1677 2.42482 -0.69369
        1.36455 2.33923 2.17653
        -6.67702 0.273373 2.57064
        0.298041 6.00585 0.855007
        -6.90352 1.78553 -3.36823
        0.480215 -1.99265 -3.2336
        -2.82543 2.74811 2.93794
        4.46167 -2.43684 -0.764083
        -4.88048 -5.863 0.985146
        -7.65075 2.58484 -0.751135
        0.658631 -3.90502 7.34167
        2.11035 -2.61148 -5.98405
        1.23347 -0.36008 -3.02933
        -6.98841 1.24464 0.634185
        1.83819 -2.41062 -6.32772
        0.964881 1.87684 -2.0742
        -1.78199 -2.52258 -1.66159
        -3.09002 2.49924 -5.15278
        -5.42291 -1.95651 -0.410602
        -4.43999 -1.82415 0.108806
        1.1837 3.09374 -1.81065
        -1.3122 2.78949 1.89438
        -5.49862 -3.95773 0.800829
        -0.209305 -2.82651 2.38579
        3.65796 4.84519 -3.22456
        5.06391 2.56698 5.34122
        -4.89631 -4.33589 -7.99969
        -2.80416 -0.649113 1.55895
        -2.67306 3.47888 5.4198
        0.363948 -2.34248 4.85536
        -9.00158 1.11307 2.97338
        -0.920094 4.65422 -5.1163
        -1.52861 -3.15354 1.25159
        -6.00669 0.897861 -0.35313
        4.70715 3.83311 1.65042
        0.772552 5.41076 -1.5074
        3.13234 -0.186903 2.20133
        -4.7901 4.10418 -0.648969
        2.51592 -2.94782 3.77136
        2.17865 0.337203 0.474398
        -4.79921 -1.45717 3.92031
        1.3329 -1.12705 -1.65648
        0.507636 4.09105 -2.38577
        2.16042 1.3416 -2.72823
        3.10941 3.82671 1.13613
        -0.679554 5.52144 4.02404
        -1.97508 -1.33101 -2.53173
        -2.66239 2.25446 -9.37301
        -1.59485 -0.975485 -3.11005
        -6.95291 -0.5446 0.766305
        0.881984 0.158043 1.85161
        -0.203585 1.33572 -4.07219
        2.34688 -1.18411 -5.96534
        1.61895 1.64502 -1.77808
        -0.899645 -1.61395 3.20335
        -4.95587 0.157063 -4.69378
        -1.91404 -0.283987 1.93483
        2.92206 -2.07106 -2.13861
        -1.64358 -5.71283 0.769618
        3.61144 -6.0235 2.16839
        -1.68482 1.0925 -3.18661
        -8.21884 -0.286918 -2.00739
        -4.12981 -0.93955 -2.82977
        -1.07381 1.22017 7.19658
        -2.76325 0.858649 -1.28668
        0.639037 -1.14105 -2.87031
        3.7918 1.60541 -2.34721
        0.310976 -3.94851 1.57258
        3.01321 2.84664 -1.98761
        5.58653 -1.10514 1.8611
        2.74177 -1.89903 -1.29717
        -2.80283 1.73739 3.58371
        1.83395 6.89959 -0.461348
        2.63718 -0.291033 0.591543
        0.750873 -3.23711 -1.72582
        0.34022 -3.14796 -4.79888
        -0.0303332 1.42927 0.599193
        -1.54698 -1.99948 2.73887
        3.2035 -1.31616 -2.30729
        -3.69153 -4.41682 -1.38088
        -0.674523 -0.264641 1.06133
        -0.802203 2.93449 2.52396
        -7.5702 -2.43317 5.60339
        -2.79021 0.794089 -0.677288
        -1.05056 2.92483 -1.21169
        -4.31697 -0.432595 7.88371
        1.63795 -0.39193 6.17038
        0.0108149 0.371951 -3.72584
        1.63859 2.26846 -0.878032
        -1.08324 -4.73749 4.37837
        -6.00579 5.74652 -6.47524
        -0.134551 -0.224838 7.53082
        -0.891356 -0.299312 1.37532
        -0.0596544 2.87842 1.17234
        -0.319339 -1.30405 2.80155
        -3.88253 6.55272 -2.15286
        -5.19006 -0.17531 -1.73658
        2.22768 3.82887 -0.154995
        -6.11676 0.217927 -0.721415
        1.81228 -0.239118 1.0736
        -5.16957 1.8186 6.6769
        3.37893 3.78448 -4.35428
        -5.14169 -0.107334 5.99253
        -0.271859 -1.35277 -6.18765
        1.21938 -2.21511 -6.17978
        3.66441 -1.26911 -3.77123
        0.718489 2.43947 -1.99482
        -6.02597 -2.67932 2.33646
        -0.0142084 3.20022 -2.72182
        3.63044 -0.688789 -6.38474
        -7.98926 -3.89435 -0.734192
        -1.14082 -1.29802 -2.46925
        0.291925 4.00033 0.806552
        1.66236 0.191136 -3.03916
        -4.36967 6.62302 -2.62785
        0.374532 2.36749 -1.61176
        -5.44483 0.879586 1.41341
        -1.67073 -2.96143 -2.25044
        1.89764 1.34474 -1.18592
        -10.2826 0.944506 4.83332
        1.4322 4.3015 -2.49116
        -2.78637 4.70092 -2.04399
        -10.4799 1.93644 3.1328
        3.01489 0.327796 -1.93133
        -0.365729 -2.19173 0.483459
        -2.50111 -0.621638 2.93649
        4.23903 -0.0644547 -2.14618
        1.69754 1.33784 6.3162
        0.62451 -2.35947 -5.58072
        3.01317 2.17639 -5.25595
        0.971295 -1.52667 -0.764317
        5.65444 1.34828 2.69796
        -3.3342 -0.654899 6.32804
        -2.97855 0.403691 2.30477
        3.86429 -2.57971 -0.667541
        -3.16551 -4.07641 -5.49589
        -2.118 -5.09487 0.759304
        3.41894 4.34433 5.97753
        3.83073 1.43494 3.45831
        1.33072 8.65652 -1.59058
        5.68261 3.19848 -1.98574
        -5.95522 2.76742 6.28747
        -2.96438 -2.15538 -0.571733
        -2.78804 4.80247 -1.43532
        -4.04278 -4.36905 0.639072
        1.24406 3.99037 2.5578
        4.23303 5.24299 6.60205
        -2.99186 -1.74241 0.353965
        -1.49881 2.80431 -0.831469
        -2.81319 0.434895 3.41155
        -1.66938 5.05035 -5.3777
        -5.09958 2.47853 6.78662
        -2.74129 2.682 -0.493847
        -2.46066 4.18602 1.70141
        -1.37973 0.865467 -4.01592
        1.03515 0.209182 -1.23022
        -5.17324 -1.2286 -2.09033
        0.673635 0.0294245 -1.65135
        2.86987 1.99631 -0.929139
        -0.529867 0.78403 -5.71013
        -1.81467 8.01544 -0.657621
        -0.913666 -3.13539 4.58351
        -0.67235 4.42292 5.1987
        -2.00291 4.36567 0.0535414
        1.38645 2.92459 3.09018
        -2.05298 -3.45941 0.503563
        2.97245 0.253837 1.62734
        -4.30031 1.13041 -0.952481
        -1.12659 1.93624 -1.59069
        0.209729 -0.742224 -6.6862
        3.00859 0.332135 -0.723394
        -4.04688 -4.61044 1.23149
        -5.892 -1.22316 3.84169
        2.0975 0.428092 -2.79067
        -3.02165 4.86357 -3.37001
        -6.02025 -0.368105 1.90969
        -4.89073 3.77847 -3.20076
        -0.531592 -3.41069 1.00206
        -1.92492 -6.84673 4.24179
        -1.7308 0.74771 3.13919
        -4.45945 -5.20716 3.59724
        -1.28224 4.90555 0.858869
        2.38832 2.77108 -2.48961
        2.06102 -0.633764 -3.71022
        0.490285 -2.11921 0.391756
        -1.96799 5.70091 -2.92006
        -1.12763 2.93257 -3.54494
        1.57422 -0.407198 -1.0711
        -7.69301 -2.41037 1.61665
        1.20811 3.55668 -0.540215
        -3.43438 -1.86895 -1.69242
        0.971007 4.51242 6.02483
        1.51045 -2.5438 -0.80815
        1.02775 2.17508 2.13598
        1.41434 3.32597 2.89056
        0.368828 2.81028 -1.91246
        -1.67277 4.47803 0.00152086
        0.92145 2.66022 1.51457
        -4.21273 4.26696 -2.39406
        4.56236 -1.65774 5.15767
        -2.31016 1.26932 0.731827
        4.77058 -0.0660993 0.902612
        3.60226 0.72673 1.43733
        -1.48773 -4.21192 0.262794
        3.19659 -0.0137659 -4.59195
        -1.55089 -3.72523 -1.77342
        0.714454 -2.26776 0.515276
        -1.45072 -2.69902 0.758625
        2.4965 -0.404814 -1.98696
        1.05242 -4.39549 4.12506
        -3.1164 2.39451 1.34183
        -6.41036 -3.34916 1.70196
        -0.386917 -3.15616 -2.75333
        2.60084 2.55498 -2.54972
        -1.10189 -6.25662 9.69906
        -1.43202 -6.37588 -5.15057
        2.03018 3.65466 9.93355
        4.28923 -0.887776 7.60973
        -2.45077 -1.65497 -0.544352
        -2.13465 -2.96669 5.69562
        -4.05838 -0.0854485 3.44268
        0.505938 -2.31582 7.57134
        -2.18235 1.4202 -0.845176
        1.42193 2.02928 -0.464841
        4.67339 -1.40575 -0.24496
        1.33724 -1.65573 -0.328516
        -0.455076 -2.96132 5.14675
        -1.5578 2.3898 6.60386
        2.43509 -3.71656 -0.214501
        -2.67268 2.37168 -1.48286
        -2.0602 -2.36454 -2.73201
        -1.63022 2.76255 -0.29371
        -1.81545 3.49522 -0.941882
        -0.557974 0.394707 -0.325158
        -0.68879 3.16508 1.10115
        -1.0152 -1.1231 -1.0629
        -3.32338 -5.41768 -3.0209
        -3.17117 2.51522 -5.07837
        2.189 -0.835652 2.89005
        3.2652 5.32748 1.87287
        -5.1297 0.377681 -3.84639
        -3.82828 4.61549 2.72757
        0.755182 -3.5521 -5.95166
        -6.71237 -1.82842 -0.906808
        -3.22622 2.58863 1.68805
        -2.00587 0.0422139 0.273576
        -2.87138 -0.820811 5.12833
        3.10441 0.1816 -2.13433
        0.80445 0.33979 -3.56463
        -2.35925 1.87807 3.38863
        -3.96893 -6.1804 1.42114
        -2.89951 -2.20155 2.01157
        5.16599 -1.05118 -1.07086
        -2.90349 -3.60125 -1.63479
        -2.3784 0.346837 -1.60957
        0.0883016 -0.78676 -1.42836
        1.00493 -8.53629 -2.22637
        1.01771 3.37195 -1.49789
        -2.39907 -1.9318 1.96375
        4.54448 0.267059 -0.0236349
        -1.11137 -4.02329 0.931824
        1.48401 0.653147 0.106911
        0.608584 6.57975 -2.45285
        -0.715613 -2.48666 -1.31029
        4.8261 -0.883985 -0.829594
        2.96638 -3.234 -2.36554
        0.787892 -1.39579 -5.67687
        -6.49852 4.47606 0.163043
        1.6314 3.70386 5.83627
        -0.140542 -0.949448 -2.93019
        2.1695 -2.58388 -0.188735
        1.34951 -1.64767 4.27709
        -2.82457 4.00556 8.81356
        2.44437 -4.01886 -1.42235
        2.95711 -1.35644 -1.9437
        4.37682 -1.65721 3.98196
        5.53011 0.216855 2.65425
        -3.24877 3.40895 1.66245
        -6.04949 -1.04932 -0.816833
        -2.053 -0.652043 -0.274357
        0.488254 -3.27159 5.86433
        1.14462 -0.379598 1.82805
        -3.32333 -1.5975 -1.97274
        -3.22889 0.879821 -0.846909
        -9.15036 -4.2017 -6.98034
        0.941238 3.59028 -4.49539
        -0.176132 -2.29501 1.33004
        1.15394 1.84595 3.31135
        -0.168483 -3.05813 0.579741
        1.04364 -1.23422 4.75442
        -1.45867 1.72849 0.090748
        -2.71147 3.84893 5.42301
        0.143771 4.09687 0.590881
        -1.79277 1.40232 -3.27457
        -7.03092 -1.16547 1.45542
        1.12594 -0.966239 -1.83181
        0.230283 -0.812726 0.460794
        -2.1413 4.54292 -1.15432
        -4.58334 -2.22558 -2.75215
        0.34515 2.35064 1.95347
        1.16569 -2.33221 -0.153124
        -0.0147234 -0.19016 3.70175
        0.346316 1.41286 0.726291
        -0.779457 0.792759 -1.22387
        -0.833783 -2.31375 -1.67418
        1.03381 3.8951 0.706823
        -1.49636 -4.08879 3.93728
        1.48227 3.59129 3.40363
        -1.72282 1.09448 6.75383
        -0.588891 -3.73119 -3.50041
        1.74188 -1.00307 2.60232
        3.12791 0.619286 -2.04147
        -5.88256 0.874064 -0.98079
        -0.915834 0.173635 0.150335
        3.71689 2.80053 4.45332
        0.470128 -3.05757 -2.59231
        -1.74244 2.83932 1.81282
        0.844221 0.272883 1.68543
        -0.576714 -4.40248 -1.27669
        1.97152 -3.23209 -4.2617
        -0.435723 3.2534 -0.219341
        0.593715 3.36438 -1.57426
        -7.52447 -4.88118 3.2359
        -3.56979 3.56171 -0.0505938
        1.06008 -1.08859 -2.12455
        -0.641976 -6.10084 -2.96779
        3.48637 -3.18589 -1.96723
        -2.18796 0.544201 0.794442
        -3.3141 0.379135 0.82202
        5.68758 -0.906491 1.77556
        -2.52269 0.314674 3.4292
        0.582563 -2.27666 3.54231
        -1.6808 1.9355 1.32377
        -1.65408 1.3534 -0.0365863
        6.43993 -0.947135 -0.691583
        -4.10275 -0.164227 -1.00788
        2.55662 5.9097 1.13199
        0.677306 3.73948 0.884599
        8.84072 -0.698023 -2.51904
        0.435668 -0.846724 -0.820732
        -4.51632 2.13477 2.4324
        3.94633 4.65856 -3.88526
        -1.1493 -1.14845 -1.95334
        5.26675 0.267732 -3.11787
        -1.46799 -1.13348 1.25608
        -5.00815 0.842074 -1.02524
        -0.88775 -1.76007 0.791786
        -4.237 2.07247 -0.114822
        2.51429 -2.57557 -2.31809
        1.41331 -0.707044 -3.93336
        1.07136 3.07132 3.91746
        3.36127 -2.17516 2.64912
        -1.96289 0.810838 1.48859
        -3.4815 -4.22592 -2.17296
        0.879482 2.30673 -3.2898
        -2.19714 1.56212 2.16325
        -1.65506 0.859489 2.32904
        4.35456 0.310687 3.07885
        -2.44029 3.2478 -2.35488
        3.39188 2.49548 -0.568801
        -2.0746 -1.01499 0.00645862
        -1.34617 -1.76026 -4.84502
        -3.30138 -5.64536 5.67448
        2.17889 2.96651 1.66592
        0.0762539 1.31102 3.99459
        -3.77539 4.16847 -1.45366
        0.475751 0.605529 -0.969081
        -4.95069 5.13015 -1.55168
        0.365578 1.49986 -0.516295
        3.91928 -4.05415 0.970051
        1.50234 -1.09576 3.81262
        -3.76286 2.23408 2.14984
        -4.24217 -0.169273 2.5949
        2.49504 -3.99846 -2.57634
        -2.24851 -1.61607 -2.53259
        -1.37654 5.87163 -0.91251
        2.19541 -0.820509 -3.06027
        -1.12889 -2.54316 1.57466
        1.54023 3.06306 -4.13044
        0.903155 -1.7754 5.44723
        -0.21034 -2.39081 3.38242
        2.44261 1.53546 0.540099
        6.86215 -3.22152 2.09479
        0.353386 -6.21927 3.84076
        -3.5796 3.66155 -1.85865
        0.699278 3.2812 -0.470007
        3.68495 -4.14936 1.5864
        -0.645139 0.341467 -0.568931
        0.321316 -0.772577 -0.254974
        2.9558 2.04202 2.03034
        -0.0696755 1.7856 -2.47011
        -2.16114 -1.66832 -1.57893
        -0.545695 3.49928 -1.31562
        -2.06305 0.734555 2.40808
        -2.36696 -0.226652 -1.38307
        -3.05171 -2.8899 -1.31364
        -6.84486 0.597472 0.537477
        2.78009 0.498982 -2.94911
        0.295432 5.30003 3.19991
        0.482292 1.92914 -1.86461
        -3.33643 -1.99623 -1.57042
        -2.39902 3.29462 -3.34129
        4.09545 1.88421 -3.05839
        0.246674 -1.96371 3.61121
        1.0421 -4.13641 1.21018
        -5.09454 3.03135 -1.09671
        -0.693436 -1.71902 -9.56209
        0.711544 3.56207 0.865708
        -2.53847 0.493233 -1.60424
        -3.04896 -2.00992 -0.592806
        0.444188 0.475506 2.73777
        -0.901472 1.18346 0.690793
        -4.05445 -2.84653 -6.89354
        -5.18465 -2.19009 0.992846
        3.66399 0.0550888 1.41139
        -1.83047 2.06122 -1.81298
        -2.74542 4.69369 -0.929779
        4.96464 0.555979 -1.30456
        2.95537 1.03867 3.46269
        -0.839114 8.19635 3.35449
        -0.584889 2.82215 0.949347
        -3.24667 1.11232 4.98133
        -2.10152 2.45265 -5.14974
        2.09114 1.35638 1.74731
        -2.96062 1.84791 -6.52543
        2.01614 1.83717 0.90441
        -0.916051 -5.76413 -0.675472
        -0.74828 -2.02815 -0.475272
        6.23232 1.65372 5.86781
        2.58431 -2.85063 -4.87395
        -0.533804 -2.12792 5.69275
        -3.38361 0.0981095 -3.29309
        -3.91914 -0.113085 4.24387
        6.58455 0.366913 1.20757
        1.71039 -5.96582 -3.83643
        -0.0343233 2.22035 -2.90678
        3.2429 -1.94586 -1.019
        -0.70101 4.90446 -2.27749
        -3.00639 2.17732 0.605259
        -2.88346 -0.730515 -2.68996
        4.11599 -1.53754 0.0889385
        -5.01488 -1.23622 -1.64425
        -1.47512 1.54042 3.99932
        -2.76302 3.8987 5.82298
        0.0163907 -1.30215 -5.70735
        0.830731 -2.06328 1.49111
        3.56405 -1.98925 -0.0907103
        0.349047 1.24401 -0.596646
        1.35943 -0.957794 1.85098
        -0.585305 1.68117 2.2652
        -0.448558 1.28491 5.09383
        -1.70239 3.68948 -0.227788
        -6.80457 3.05612 -3.05382
        1.06944 -1.59549 2.79681
        -0.494652 0.582717 1.28347
        0.858371 -5.65458 1.7101
        -1.95643 -0.456293 -2.00671
        -8.68496 -1.78268 -2.44952
        -0.452185 -1.4162 -4.42032
        -0.99564 0.873872 -3.24132
        3.81061 3.04643 1.14359
        -4.63763 -2.63519 -3.54981
        -1.08584 1.52211 4.15254
        2.05593 -1.80439 0.181469
        -0.920821 -0.18576 1.94353
        2.00297 -1.64206 -0.215362
        3.59658 -2.42744 -4.72022
        -2.1111 -2.66293 1.0703
        -1.71955 0.282408 2.62585
        -3.49537 4.51537 -0.108714
        -0.226204 -1.39156 -1.13937
        4.29499 2.43431 6.04315
        8.28718 -1.47642 -0.00896718
        -3.70275 0.139753 1.09925
        1.80456 -2.98933 0.757937
        -1.10079 5.95522 2.47557
        -5.08317 -1.30631 6.05434