<?xml version="1.0" encoding="UTF-8" standalone="no" ?>
<VTKFile byte_order="LittleEndian" type="UnstructuredGrid" version="0.1">
  <UnstructuredGrid>
    <Piece NumberOfCells="0" NumberOfPoints="15094">
      <PointData>
        <DataArray Name="velocities" NumberOfComponents="3" format="ascii" type="Float32">
        -3.13937 -5.16564 2.44992
        0.154298 -3.25664 0.486084
        6.51175 0.453484 4.42611
        0.416616 -4.8526 2.08074
        -2.56252 -9.70316 3.24985
        -0.488059 -1.14123 1.82439
        -3.06647 0.798822 0.00221073
        2.66012 2.64031 4.43973
        -6.12032 -1.25701 8.75373
        0.120276 -3.71703 1.47852
        -8.42463 -4.63592 -2.60149
        -8.7908 0.527088 8.72939
        4.42177 -9.58489 6.92768
        -1.25547 -0.949373 -1.22404
        9.69976 -5.39818 8.51167
        -3.69115 -0.905358 3.83754
        -0.383251 1.56431 6.67166
        -0.354773 4.03814 2.93987
        1.05007 2.77679 -4.73937
        3.74649 5.02454 -7.85123
        -9.86589 -2.41102 2.51491
        -8.80763 -4.01979 1.22293
        6.39396 1.11041 1.59455
        -6.76539 1.36495 3.08541
        6.61026 -4.33889 5.69963
        1.89113 1.72967 2.16156
        -1.09419 1.55644 5.57498
        -1.34079 2.90941 3.09329
        -0.174778 -6.2939 -0.0269569
        4.23568 -4.49797 -3.54318
        -1.78598 -2.35207 -8.09206
        -2.7561 -5.8803 5.07232
        -7.11426 -1.5728 1.33488
        -0.516493 -7.01732 -5.04927
        -6.20169 -3.17426 -4.16006
        2.50268 12.1121 -1.59649
        -0.536988 1.01042 2.50769
        1.09891 -5.11628 8.43288
        -6.07146 6.73689 9.18364
        1.58955 -10.5334 2.77382
        3.92166 -10.1501 -0.617784
        2.25696 -4.07955 12.1033
        -1.44726 -0.718014 5.95834
        -3.82338 -5.08513 0.719627
        4.1042 0.373236 1.39817
        -3.03667 0.608161 -1.96146
        -1.73348 -2.04952 9.39818
        1.28892 -9.44178 5.20823
        -0.975625 -2.30654 -9.56399
        -7.586 -4.87683 6.31057
        -6.45638 5.98803 3.40558
        1.00487 -1.62561 2.07727
        -4.82324 1.12024 1.40857
        -8.64127 -4.72046 -1.44516
        -3.03585 -4.67332 10.211
        -5.81217 2.03622 3.07887
        -0.36218 4.49111 4.05175
        -1.7708 -3.57974 -8.96439
        0.249532 -2.01124 -6.00771
        -1.59002 -2.77352 3.8861
        -4.79296 1.1682 5.11344
        -4.02902 -4.50302 3.23762
        -4.99992 4.24902 6.33337
        -5.73477 4.91816 6.56259
        -5.52625 -2.07234 -3.10349
        -3.88754 -7.9915 -0.00705861
        -4.00021 5.17683 8.34149
        -1.29037 1.79509 -3.97148
        -7.82015 -5.44879 2.84085
        -2.6799 0.401585 -3.54679
        -0.831818 -3.28985 1.71268
        -4.05011 -4.72183 4.68911
        -7.15152 -2.83697 0.943604
        -5.32898 -1.06074 -2.75179
        -6.73339 -5.68403 -1.39247
        0.309383 1.32594 -3.63802
        -3.17906 2.5632 4.20041
        -4.86473 4.29457 0.325934
        -3.26052 2.40815 -1.33663
        0.297072 -3.78637 3.21335
        -3.44549 1.24645 4.95265
        -2.36191 3.36093 7.78596
        1.4907 -1.76177 2.3327
        -2.51984 -3.44607 4.39717
        -8.18159 3.77261 7.13376
        -11.0758 -3.55546 0.317821
        -6.63584 4.38753 0.164192
        -7.2697 -1.6685 1.58518
        -0.184015 -6.29212 2.9168
        -1.91795 1.74945 3.05902
        0.561976 2.01269 0.306317
        3.2004 2.66677 -2.60933
        -5.8125 -0.186956 0.759092
        -5.5043 1.04625 1.04103
        -2.36232 4.93867 -2.78069
        -7.12276 4.84939 -2.77566
        -2.38102 -4.8079 -1.85128
        -9.55986 -3.83888 0.00783777
        -4.86378 1.26954 -1.96491
        -3.69873 -3.14158 5.79171
        -0.903461 3.37369 -4.59211
        -6.07157 -1.32367 -4.48485
        -0.811967 -2.44752 2.16722
        -3.46766 -3.8941 0.185974
        -6.00235 -0.933109 -4.09938
        -8.96148 -3.90435 -3.1309
        -2.64089 -3.17401 5.7347
        -6.13144 1.36014 6.94684
        -1.70273 -0.0321333 3.81693
        -4.69489 5.17366 -4.10172
        -5.71707 0.392696 2.62179
        -1.57438 -2.45907 4.68726
        -5.85374 4.49012 0.274632
        -0.0907942 -1.66174 2.48967
        -7.1465 -2.95423 -1.20416
        -7.50576 0.409011 -5.08063
        -2.01619 -0.378001 -0.930411
        -3.44623 5.45883 0.261259
        -11.3376 -7.08744 1.57246
        -6.17591 4.91387 0.24593
        -0.764169 -4.86928 -1.09797
        -0.996128 -0.0367095 4.28652
        4.96105 -1.25731 1.33616
        -6.75463 -2.61457 -0.458337
        -6.68924 -3.83177 3.63861
        -6.77025 -0.380202 0.772379
        -2.76131 -4.17894 3.80149
        -5.88698 -3.55221 5.52121
        -4.78827 5.60332 3.67813
        -9.57995 3.16818 3.89043
        -0.20517 -5.90179 1.29311
        -2.76795 -1.11568 1.54838
        -5.65809 2.01675 1.79743
        -3.34611 -2.81929 1.19763
        -5.40235 -0.683904 3.84571
        -0.0692708 -2.92863 -1.00912
        -5.10503 3.10209 4.42506
        -4.31297 3.95782 -3.27948
        -5.25779 -1.64042 -0.195498
        -3.34953 -5.7642 -4.19585
        0.326929 4.16975 -1.4748
        0.120319 3.28856 -0.376461
        -8.3174 2.92811 4.28426
        -7.21 4.06583 -1.59593
        -7.68319 -1.63979 0.696797
        -2.15893 -3.70938 -2.65632
        -3.3425 0.880688 1.72527
        -4.39958 -7.85957 1.9845
        -6.52116 5.59571 3.09632
        -3.49176 -2.85308 0.433198
        -4.97546 -0.0349464 -2.23449
        -3.36527 2.59884 3.10638
        -8.05533 0.756572 -0.517346
        0.317228 -0.510013 -3.15333
        1.41733 -2.45517 -1.35228
        -6.32375 1.25023 -1.3397
        -0.545973 -6.50515 -1.91713
        -7.8876 -2.99729 -2.08821
        1.30458 -0.721078 5.58902
        -4.14589 -4.27227 3.66151
        0.418541 2.99968 5.79985
        -1.31131 2.11737 1.73792
        -9.54158 -2.8815 -0.212449
        -5.61859 -0.968969 1.89275
        -0.896542 -4.3207 6.09575
        -1.9648 -0.975762 -1.66265
        -3.14083 -5.47407 3.90807
        -4.83619 2.42162 -0.67744
        -7.46388 3.24046 0.334745
        -3.4054 0.264846 -4.00641
        -4.83459 3.41399 -1.76848
        -11.3848 -0.642164 -2.42961
        -7.16022 0.231526 -5.44236
        -0.602189 -4.65167 0.88437
        -5.89288 4.08834 -1.64833
        0.882254 -7.59152 1.51859
        -1.83621 -0.779643 1.83857
        -2.26263 1.71121 -1.70595
        -3.67122 -0.25139 6.95888
        -2.29936 2.04176 -4.31523
        -3.92563 2.54 -4.6367
        -5.17276 -2.00013 0.842413
        -6.29914 1.48785 4.27261
        -1.66521 -0.65737 0.735591
        1.37237 0.775689 -1.94124
        -8.80134 2.649 2.28906
        -6.59504 -3.55597 1.80424
        -2.25923 -2.76068 -1.36537
        -2.76402 2.54533 -1.36616
        -4.35815 3.58807 -3.04395
        -6.45456 -1.56017 -1.08495
        -4.52591 -8.23268 -2.24559
        -0.174691 -2.3261 -2.02197
        -7.46866 -0.58444 6.67604
        -2.43417 -6.65697 3.9362
        -5.49126 -0.672893 4.57206
        -4.81787 -1.29752 4.01247
        -3.7059 -1.15775 -0.324488
        -4.87037 0.931488 -2.07521
        -1.41827 -0.872709 4.76667
        -7.23574 0.595262 -1.19756
        -4.92976 4.74698 -1.17104
        -1.04129 3.55699 8.78827
        -0.162998 -6.64718 -3.60879
        -6.56121 -3.21891 -4.23426
        -1.59391 1.07582 -0.216817
        -3.09094 -3.97731 3.09777
        0.161112 -3.2449 1.11143
        -5.75157 2.978 3.70411
        -6.33886 0.912597 9.43528
        -5.54572 -0.10301 -3.57054
        -3.90802 6.29074 -6.70676
        -1.66136 -3.26211 3.71253
        -7.77141 2.29389 -2.43771
        -5.73162 -2.13272 2.62507
        -6.21411 3.0721 3.86849
        -7.08959 -5.77698 0.0804179
        -0.695093 0.256524 -0.184495
        -4.34713 0.341378 -1.13583
        -5.85647 -3.50613 1.72737
        -8.60323 -1.58737 0.773212
        -2.09506 -8.82762 1.88371
        -4.29992 2.59643 -1.79686
        0.183933 0.62463 0.23587
        2.04584 -2.27123 4.59237
        -2.22091 2.94855 1.62718
        -5.90554 -2.04009 1.33545
        1.69482 -6.91457 -0.398476
        -3.37446 2.74197 -0.217574
        -4.16432 -2.60703 4.97995
        -4.29897 -1.57357 8.55917
        -5.38574 -4.40313 0.877043
        -0.522726 0.0649756 1.97649
        3.77935 -1.11832 -4.48257
        -1.06176 3.5733 0.293329
        0.596339 1.0957 2.42727
        6.13696 1.98546 1.23294
        -4.77571 -1.02013 1.30727
        1.59434 3.46912 -0.548542
        6.21903 0.084466 -0.641453
        2.76714 -5.51859 0.571656
        -6.95406 -1.95128 5.69069
        -4.64499 -4.34653 2.41281
        -3.594 3.55327 -6.91095
        -3.13659 -1.09455 5.97376
        -2.51443 -8.52024 2.36966
        -3.84084 -0.302319 1.70687
        0.253651 0.149565 -1.62121
        -0.654655 -3.47317 -1.506
        1.57562 -0.876566 -0.237915
        1.22803 0.364246 -1.8343
        -11.5687 3.99036 -2.13461
        2.13311 3.70551 3.00112
        -3.93193 0.113787 3.19162
        -0.0882818 5.96112 2.88602
        -1.70545 -5.20039 -3.61769
        0.53256 -0.957793 -2.74861
        -4.92079 -1.11317 5.25983
        -0.116551 1.18424 -0.295748
        -4.31893 -3.23638 -5.57395
        -0.54535 6.79365 -7.36638
        -7.33412 10.2631 -0.218016
        0.722117 -4.34262 -2.97899
        -5.90973 -1.93172 7.77022
        -4.52334 -5.21013 4.19809
        -2.07036 -2.61883 -0.315841
        -3.42282 1.40093 -3.08684
        -3.05443 2.02105 3.629
        1.31614 2.62016 0.464942
        -4.0308 -4.91994 0.504051
        1.77281 -4.72312 2.0671
        -3.25574 4.57409 -4.65372
        -8.57002 0.86336 4.62022
        -3.02869 -9.85413 -1.13413
        4.15239 -2.91247 4.33545
        -3.00801 3.55249 2.36719
        1.47853 -3.31865 1.41361
        -7.30022 -4.04595 1.55676
        -5.15692 -1.11705 -4.69175
        0.393787 4.1667 3.13237
        -6.4598 -4.3347 -5.92349
        -0.140529 1.33053 8.36764
        3.45648 -4.00807 2.91427
        -2.44819 -1.39584 1.51822
        0.600235 3.12243 0.331088
        1.00817 -0.84208 2.19306
        -5.52793 -5.59722 2.46551
        -2.46277 -6.10198 -1.95895
        -2.38474 -0.571426 -2.60291
        0.505753 -4.50296 2.38295
        3.45538 -0.126773 -3.2793
        -4.00369 -4.66902 1.74726
        -1.54018 -0.662676 -0.878837
        0.642669 -5.11513 -3.19091
        -1.511 3.89553 0.324098
        6.19828 -1.42967 -2.54635
        -2.9948 1.41994 -4.60462
        -1.36742 3.2578 5.2688
        2.89865 -2.37915 0.404255
        -4.32575 -0.142594 -0.543113
        -0.566171 -1.57656 1.86823
        -3.26949 -2.54605 -1.21783
        -2.53927 -7.2408 1.71189
        -4.03056 -3.19287 -6.39852
        1.03891 2.22661 2.61911
        -0.247362 -2.2291 -1.01776
        -0.978863 0.647959 -0.17948
        0.252313 -3.52625 -1.74615
        -3.21523 -2.05289 1.14512
        -2.20671 -7.3984 6.5927
        -0.596749 6.25559 -1.97105
        3.49457 4.45962 0.0503823
        5.9431 2.06339 -0.0804152
        0.959064 -4.8367 -3.47154
        -1.112 -4.475 2.30871
        0.92476 2.73349 6.64797
        -4.60668 -3.28539 2.26185
        2.20353 -3.11986 3.0676
        8.61543 2.66429 0.364691
        0.854635 -6.5056 3.32498
        2.66151 -3.05094 3.23321
        2.29225 -1.53414 3.35845
        -1.37542 -2.27771 -5.18401
        -6.92734 -3.35 6.19376
        -9.56125 0.949189 -0.102454
        -4.1596 1.05584 0.163419
        -3.92511 8.76082 -1.24814
        3.12259 6.59861 -4.34695
        -2.44563 -0.936254 6.09742
        -3.31926 5.59728 0.441221
        1.4706 2.90301 -1.39797
        -0.28676 4.50745 6.33702
        1.53448 2.11694 1.04285
        0.693023 -3.32654 1.59933
        3.54924 -0.166711 0.40696
        -0.558482 5.34185 2.94834
        -3.31017 -1.66803 -10.1175
        -5.73849 0.585771 -6.37807
        1.19508 9.15286 -6.34623
        -1.25312 -0.984424 -0.19107
        0.812896 -5.00254 3.85357
        2.28725 1.4859 0.402764
        -3.45594 -0.186547 4.44408
        9.64664 1.41991 2.04595
        6.19192 -5.71765 5.14354
        6.04041 -1.54325 -0.555033
        -2.5262 -5.3215 -0.120842
        3.2729 -2.50278 -0.900918
        -2.81054 -0.782194 2.9173
        -0.242195 -3.6057 3.70792
        4.92892 -1.20637 7.08996
        -0.791539 -5.78078 1.76719
        2.79427 -0.876518 -6.20081
        -3.77193 -2.9803 -7.5414
        1.15473 1.60268 -0.0787861
        8.74751 6.28172 1.92303
        0.0183118 3.64679 -0.96143
        2.85962 -2.26752 2.89638
        -1.43258 -2.05927 -3.17694
        2.55466 4.23774 4.05249
        1.24446 6.15574 -1.92752
        -0.0929567 4.5731 -1.53621
        5.33532 0.507926 3.15436
        2.13058 -3.13102 -0.684554
        1.55595 7.1449 -3.4961
        2.40439 3.03833 1.53628
        0.71398 3.24074 3.65663
        4.04451 -0.203448 -0.161832
        -1.74503 -2.2388 10.5719
        -0.721468 -4.13669 2.42464
        -1.61749 -1.93574 -2.10981
        0.381349 -2.07035 1.16079
        3.40361 -0.830016 1.99295
        3.01019 -2.89853 6.5899
        1.53876 4.1334 2.3768
        2.34333 -3.03986 2.93037
        4.52659 -2.49646 3.28765
        3.56163 -0.0893258 1.41646
        2.54812 2.63999 3.828
        2.71852 -1.65763 1.01303
        -3.22627 3.66668 7.34128
        -0.569398 7.48909 7.58513
        4.68481 0.61318 1.73556
        7.09391 1.66017 -2.77018
        6.81973 0.853037 6.15125
        2.85088 1.3435 6.16371
        -2.64058 -3.27174 -0.201255
        -2.26677 0.0387803 -0.598155
        4.48042 4.0413 7.38249
        3.79794 -0.674625 -6.24224
        -5.80266 2.58282 -6.23065
        0.917633 0.246675 -2.48936
        5.30147 0.557909 2.24045
        0.513782 1.65434 0.744899
        2.0789 -4.75053 -3.25442
        5.858 -1.60009 10.5324
        4.67838 5.29297 -7.58629
        -3.27453 1.90129 0.141239
        1.26944 -4.5749 3.24358
        1.03305 -6.32076 5.3683
        4.30161 -6.15624 9.50036
        2.51898 -0.567773 -0.489325
        4.45218 -5.798 -1.35762
        -1.88499 2.32022 3.13514
        -4.21255 -1.13998 4.81103
        -1.909 4.57863 -1.5321
        0.666924 -1.61246 5.62785
        -4.20439 -2.05095 3.8773
        -1.98817 2.53507 1.26239
        1.17001 3.33437 2.32828
        0.858192 0.682741 -0.206429
        -4.50259 -2.94232 9.40711
        -3.78239 3.76235 0.907434
        -1.7452 -3.46226 3.0952
        -2.84989 -8.481 2.56931
        -3.22762 -4.17552 2.88855
        -3.03495 2.72192 0.61329
        2.26807 -2.19878 -1.55153
        -0.173201 -2.47921 2.58947
        5.88153 -2.85263 2.66848
        5.40013 -3.30622 -0.19158
        -4.07108 5.75098 0.369648
        2.38376 0.0970873 3.48801
        -0.0612887 -7.0094 -1.55269
        1.66464 3.94412 8.18769
        -2.32118 8.9554 -3.42322
        0.0493595 -5.97822 -5.40221
        -1.57425 -4.85705 5.47102
        2.38981 -0.29719 4.3557
        0.734623 -3.80839 -5.8751
        0.0407919 -0.996435 5.30168
        -2.58756 -6.20545 0.476585
        2.07888 0.869012 -0.230011
        -1.14089 3.64788 2.98821
        -3.11035 2.38827 3.88736
        9.21823 -1.15375 4.22242
        1.38754 2.64413 -2.74518
        2.87839 2.25063 7.13877
        4.1918 0.65519 -0.45969
        -0.278705 -4.01155 6.0639
        10.0843 6.26629 3.79656
        -1.9188 -1.6598 4.99533
        2.99843 0.716839 3.68408
        1.18982 -3.97337 1.03974
        0.0331675 -6.35382 1.99674
        -0.574252 -3.00605 1.97425
        2.59366 -0.551117 0.685
        1.19006 1.18001 1.88315
        6.0232 2.31113 0.0269897
        1.51617 4.70317 2.72234
        4.37981 0.700871 -6.68524
        -6.75743 0.922077 -3.22484
        2.72114 -0.594646 4.74863
        1.35972 3.80583 -0.581867
        -6.07375 -4.74077 1.93582
        1.27049 0.358902 -2.6409
        2.11494 2.86754 7.61891
        -0.782161 0.215952 -6.86036
        4.9027 -4.12322 -0.642729
        4.84403 0.753821 0.514515
        0.856927 6.46901 2.14776
        3.66364 -2.9586 2.28908
        1.52899 2.06629 -3.63914
        -0.844657 6.022 2.97872
        2.12222 6.32866 4.6801
        0.473431 0.992995 4.70311
        10.0117 2.45551 -2.18151
        1.06762 -2.53906 1.77424
        -1.63161 -5.35077 -0.866582
        -0.354551 -0.738908 1.38404
        -2.70223 -1.80676 5.0082
        -3.18803 2.02074 0.253407
        2.83198 0.148474 -0.103282
        3.4281 2.05186 9.91118
        2.14586 1.64971 2.03606
        -1.75106 -3.38742 2.64962
        0.118819 4.80666 -0.88864
        1.6722 0.520881 1.59022
        2.85562 -1.78543 0.973812
        -0.814633 -2.28336 5.87986
        0.84239 0.867403 0.449539
        7.02875 3.28678 -5.83677
        -5.88889 -0.34911 1.8046
        1.60956 2.26124 4.25931
        2.37931 2.67781 -0.375068
        1.56439 -0.883242 -6.5046
        2.04111 0.265141 -3.03844
        3.21976 3.70234 -5.05611
        11.0636 -0.136141 -3.26102
        -0.717404 -0.794603 3.09244
        -0.67628 -3.08554 -1.32555
        1.62598 5.86963 1.58871
        5.95397 -0.004452 0.527929
        -2.73274 -5.14141 8.18351
        2.90833 -4.30962 2.82998
        1.06754 3.86764 -7.99347
        7.19995 -3.46491 0.905774
        7.11744 -1.10182 0.510337
        -0.251097 0.330218 1.06759
        8.38293 2.22102 -2.53059
        4.60759 1.5367 3.16181
        4.03501 10.5259 2.64601
        4.18481 -2.17818 -1.72449
        -5.35231 -1.35939 3.25047
        1.56324 6.76679 1.90709
        1.99041 -8.60766 1.30614
        0.319831 4.5758 5.91191
        2.72661 1.92557 2.81078
        0.7862 -6.35943 1.78568
        9.26798 6.07754 -0.565912
        4.47122 -0.281963 -1.24742
        3.97589 7.78755 -0.8405
        5.24884 2.67907 2.76494
        -1.96561 3.11632 4.65056
        4.18111 -1.51461 0.51366
        1.3749 -1.03691 0.462424
        2.42405 -1.84764 0.039431
        3.95148 -0.719835 1.53277
        -1.6518 4.60942 0.872015
        4.86889 0.267975 3.79105
        3.72073 -2.44039 2.14018
        6.69183 1.11873 1.70495
        5.40933 -1.2807 1.16156
        -0.489112 1.38151 2.2004
        0.427125 -0.830824 -4.23979
        6.90317 5.46821 1.93277
        0.181182 0.94659 4.79178
        5.58713 0.561783 -0.824051
        4.08363 -2.51222 -3.45656
        9.23585 -1.22612 0.561826
        3.5259 0.471289 2.39593
        1.86028 6.42457 2.24467
        4.23909 -1.67504 -0.203476
        4.92314 1.84035 -7.97981
        5.44036 0.0564259 1.10054
        3.37887 -3.78084 3.27772
        4.15305 -0.304438 3.42699
        11.0957 0.549053 -0.660734
        2.48462 1.35822 2.36304
        3.5999 -1.05437 0.850752
        3.53093 -6.82918 -1.43189
        3.2094 0.668861 0.113275
        7.02874 -2.49298 -3.1381
        3.90094 0.45756 0.432526
        3.22869 -3.33807 3.91642
        7.7273 -5.50357 -2.1001
        2.9778 1.74432 1.3686
        8.11905 1.73447 0.16274
        2.36623 3.68401 5.66631
        0.533336 3.19264 1.13943
        6.70859 -6.22246 1.10074
        3.96677 -5.16167 4.58899
        2.88615 -5.93008 1.57593
        2.1047 5.71019 -3.92972
        4.27391 2.45404 -2.18209
        2.95276 4.41821 4.02511
        3.28931 -0.367477 5.91607
        7.83626 -0.896596 -1.08335
        3.86954 -1.77965 1.88739
        -2.11211 -0.976253 -2.64888
        1.87108 1.02816 2.71824
        1.09554 -0.0845923 -2.42901
        4.24238 -2.50128 -1.23722
        5.78208 -0.088694 -2.95669
        0.863642 4.54563 3.29589
        9.1705 1.48558 -4.56444
        4.3685 -3.1337 -1.77226
        1.73386 0.109796 4.293
        0.91188 3.98629 2.19625
        1.12681 4.87729 3.15155
        2.67011 -2.25035 2.52976
        4.01719 2.26505 0.518376
        2.98173 4.74393 -1.24531
        4.87196 1.53726 1.19969
        1.79865 -0.274123 4.65455
        -0.824933 1.78165 2.24344
        0.42972 1.6551 3.65455
        7.61646 1.34012 -4.26641
        -1.85447 5.24862 6.70439
        3.36468 0.581109 -0.926251
        1.47868 0.311257 -3.81816
        1.65779 2.62495 1.62201
        4.83255 -0.267557 -7.35057
        5.37437 -0.0745917 -5.41521
        -2.78866 -1.13273 -1.13421
        3.66795 -1.40737 1.40337
        0.0684718 -0.301435 -1.23083
        3.9873 0.493552 2.3694
        -0.594289 -2.69868 2.88991
        1.05781 1.11136 0.487706
        4.49648 1.99399 1.81334
        3.87658 -1.23899 4.52206
        5.50639 -0.913398 0.612523
        2.04417 0.946324 1.86123
        2.19578 -0.312199 6.92258
        -2.62786 -1.63403 -0.850498
        1.94282 -5.0926 3.11226
        -0.989016 1.00972 -1.01433
        7.03461 1.07378 -0.475775
        4.23873 -0.934775 5.78618
        1.10621 1.40615 -0.189714
        5.25976 -2.01595 1.29494
        5.17809 -2.78863 5.08811
        7.42203 -2.2301 3.17673
        7.66587 -1.50336 7.19364
        4.87914 -5.7684 1.40857
        0.542353 -0.862685 2.74715
        5.69882 -4.04538 6.01961
        0.604047 -4.36297 6.73007
        3.20493 1.51769 -2.77965
        5.48604 -6.20391 6.92592
        1.26261 -1.2441 2.61027
        1.42122 -3.1889 2.93389
        3.34093 -6.58736 -0.00696691
        8.48578 -5.36951 2.31181
        3.27191 2.30846 -0.668439
        1.1216 -3.80983 6.70125
        4.81884 -0.82134 0.438327
        2.32162 2.50973 1.94455
        6.58641 0.611599 -0.924825
        -1.68233 5.24859 2.50831
        -2.90786 -3.16253 -1.93292
        1.54288 0.63049 3.96346
        2.48171 -3.13071 -3.33767
        5.29188 1.6421 10.4356
        6.87133 2.468 0.124626
        5.53063 -1.72285 3.30731
        -2.62081 2.1176 5.80373
        -0.38644 7.34546 3.77061
        7.73212 -1.70317 4.35666
        5.55017 5.504 1.25163
        2.51728 -4.85522 1.23382
        5.45811 3.79216 -2.12309
        0.392124 -4.47427 -0.632452
        5.53717 -0.710495 -4.11646
        4.8788 8.68631 0.0712775
        -1.8413 -4.417 2.01245
        6.79156 -2.13765 -6.09473
        2.02756 3.29121 -1.27983
        4.23059 1.9921 3.49964
        3.91989 0.950379 0.701831
        4.59004 -1.78536 1.49233
        7.80455 -4.26419 -2.58621
        3.7666 1.79851 -2.30998
        4.59471 1.8505 2.68642
        5.08937 0.77743 1.46535
        -3.25519 -4.77849 2.33936
        -2.49479 -2.14623 -1.76476
        -1.19052 2.82417 -2.66044
        2.66548 -10.4913 2.56603
        4.10745 -0.827221 1.45719
        4.88755 -0.73222 2.96541
        -0.744618 3.41508 -0.140444
        2.99792 2.44295 -3.04762
        1.19728 -1.73875 2.79544
        -2.86311 -2.80562 2.72333
        3.26242 -0.0411417 -0.155619
        5.37044 -2.65178 2.87724
        -0.450489 3.13027 6.09518
        6.69413 1.6922 1.84876
        0.970291 -0.497172 -1.27042
        1.60604 -2.16272 2.86673
        1.75422 1.67032 -2.54656
        3.4491 -3.67835 3.10085
        6.39603 2.66264 3.71498
        5.54637 -2.26701 3.038
        8.69767 -1.1923 3.48104
        9.28454 -3.89603 -1.16511
        1.13246 9.05461 1.85478
        -1.5714 -5.2876 0.769105
        4.71284 -2.18954 2.28866
        2.69297 3.97565 -2.21448
        2.04964 -0.159651 2.85001
        3.49065 -0.162888 -3.20131
        5.02194 1.29093 -7.17009
        6.27575 -1.41179 3.85043
        5.28354 -0.247017 -2.15347
        0.575479 0.137621 -4.77748
        4.82194 -3.14305 3.03268
        3.7557 0.859093 3.78886
        -3.46321 -2.35045 3.37376
        2.34103 2.0244 -0.123091
        2.72971 1.48043 1.18639
        3.31503 -6.28806 -0.966076
        2.31758 1.09297 -2.25236
        1.06031 1.55649 0.55585
        0.549851 5.90355 5.43437
        2.30648 2.66097 2.36855
        2.68764 3.95749 3.91119
        2.17852 -1.02715 -0.453512
        5.99589 2.96153 0.429279
        6.48136 1.48974 1.85689
        5.83632 -4.93159 0.332763
        0.714696 -3.97387 -7.32228
        3.06173 4.44501 -2.26734
        2.18659 0.212831 -1.57492
        4.10079 1.64825 1.8625
        5.01243 -3.55322 -0.0611972
        -1.38353 -7.56005 -2.37613
        0.930196 -3.19755 -5.67633
        5.21066 -0.479265 3.80938
        4.12817 1.37986 -2.47483
        4.77589 -1.44227 6.02542
        9.88333 -2.18686 1.32861
        0.830273 -3.18173 4.33947
        5.95288 3.14489 4.89776
        9.37548 -4.6892 -1.32278
        5.56479 3.04281 -4.72503
        2.52277 0.474588 -1.6775
        7.95838 -0.341526 1.10177
        7.13612 -3.60936 -4.39451
        3.93375 5.61319 0.841848
        6.9431 -2.68675 -3.55347
        4.98977 4.62269 7.9522
        4.97825 1.82676 5.29024
        6.25718 -1.4696 0.48773
        2.64491 -3.2208 -3.90963
        4.37324 -0.557128 2.55635
        3.13642 0.981359 1.31804
        0.634871 0.124398 4.03039
        -1.95332 -5.43419 -1.91386
        -3.2329 0.860569 -1.37688
        0.513439 -2.2382 -4.64431
        0.978027 -0.550261 3.13592
        5.17576 -7.09847 -2.75773
        -0.0388707 -3.77033 -3.53219
        8.34061 -6.88514 0.814127
        4.2984 -0.152469 0.838197
        5.76687 -2.40183 -0.0360212
        1.38653 -5.53267 -3.54011
        1.23079 2.62034 0.600463
        4.36725 0.508131 -1.55431
        6.83275 1.24495 7.9002
        1.72645 -2.13951 2.14033
        4.45138 -4.63658 0.985534
        1.97798 2.31278 -2.86224
        3.04617 -0.772404 2.08608
        4.69874 3.15746 -0.560123
        1.54916 -1.16757 -3.64659
        0.122652 1.72647 2.71425
        0.938707 -1.13056 -0.265039
        0.430744 0.706109 1.77931
        2.38744 -0.103637 -2.99736
        5.07772 1.33565 1.44838
        3.69122 -3.5216 1.69254
        2.27519 -4.13477 -8.38861
        5.16565 -1.09697 -0.42184
        4.57697 0.147984 0.994193
        2.38764 -6.24176 2.6436
        3.88491 8.07083 -1.39987
        -3.2695 -0.274502 3.37343
        0.0561097 2.29104 0.927113
        -1.08849 3.18328 2.31377
        2.22262 -2.28495 -1.09304
        2.24396 -1.49397 -0.138421
        5.34244 -1.9223 2.28685
        -3.15102 -1.95056 3.1887
        -2.32952 -4.23824 1.35682
        -0.018728 4.41421 0.59636
        1.50211 0.338499 -2.574
        2.41522 -3.33696 4.16167
        6.39884 3.78303 -1.14798
        -1.15694 -6.47192 1.56347
        0.514848 0.0526538 1.32131
        0.199087 4.02314 7.54246
        5.92196 1.03848 -2.7276
        -0.278719 -1.16261 0.665993
        0.54247 1.69309 -1.7574
        4.58536 -0.374374 1.23864
        3.78449 4.9287 0.469985
        6.13337 -0.147046 1.48775
        4.78145 -0.326668 -4.06279
        3.1633 0.779283 0.601632
        6.97416 -0.484566 3.38564
        1.96927 3.4074 2.19757
        0.906411 -3.42634 6.47863
        2.17436 -0.106581 -0.8009
        8.05055 3.73633 1.27732
        2.39358 1.62981 0.863469
        4.43049 2.34892 0.1132
        9.20906 -7.15464 1.61708
        1.70664 -3.764 2.99375
        7.04862 -2.71901 3.71655
        6.58786 -4.36937 1.40951
        2.42419 -2.56088 0.455374
        0.975433 -1.84093 -1.96457
        3.72901 0.644459 2.40228
        2.60197 -1.46762 3.15499
        0.793004 -2.29298 -0.897202
        0.731568 0.193523 -3.27334
        5.69602 0.534474 -0.470786
        6.00161 -0.860397 -2.48154
        5.85612 -3.95007 0.320149
        -0.779507 -7.8501 -2.48862
        4.69769 -1.90106 -1.3873
        -2.02024 -9.47899 -5.9105
        2.34398 3.28017 1.90978
        0.891112 -1.95111 2.76976
        -0.51592 -0.225124 4.68904
        -0.931775 2.55401 0.905307
        7.72523 -2.65672 2.49014
        1.6668 -1.02767 -1.01349
        2.66937 -0.576705 2.97065
        -0.0288391 1.18371 -5.55115
        0.496703 -2.17831 3.34764
        -0.782314 4.42147 4.53145
        2.88349 0.921703 2.33518
        4.10528 -1.53714 -3.80096
        -0.790248 -4.90887 1.21631
        0.0958597 1.14418 1.98406
        0.713046 0.982389 7.7404
        -0.253257 -5.27136 1.29874
        -0.0924349 -0.237216 0.263107
        2.55777 2.59718 2.905
        -4.78177 0.0203303 -4.87913
        -3.76257 4.30033 -3.32425
        -2.77019 -1.65182 -1.83745
        -2.47965 -0.953046 -3.70159
        -0.452742 -1.07663 1.09962
        0.53198 0.796479 -0.546392
        0.959972 -2.58699 -0.250577
        -4.29206 -2.37892 -2.44922
        1.1117 0.878808 -6.3135
        -0.8651 0.600182 2.67802
        4.84587 3.52089 2.20342
        0.0267193 -4.96816 3.28068
        3.96345 -6.09764 -0.0256003
        1.01475 4.92786 4.30968
        -2.46346 -0.696901 -1.5056
        3.56638 0.293262 4.51063
        0.354369 -0.384695 0.679305
        2.0558 1.14465 3.86782
        -2.36101 3.3095 2.67906
        -1.35258 -0.134436 -6.16491
        -1.83551 -1.65569 -2.68721
        0.71333 -0.168927 -2.61547
        -5.53589 3.95372 1.12167
        3.74125 2.04829 -7.2795
        -0.82967 -0.0379421 4.63917
        -2.19208 4.01542 -0.33478
        -0.761907 1.34289 -2.76378
        0.759178 1.75033 0.465328
        5.47295 1.89264 3.83842
        -1.63571 -1.00483 -0.575054
        -1.26488 -2.45061 -4.92067
        1.93774 -0.715533 3.97782
        -2.88108 3.3067 1.31943
        0.414428 -4.33878 -2.99545
        2.36728 1.32679 -5.54198
        0.704511 -1.99835 -5.76029
        4.32353 -0.582465 -1.10657
        1.7898 0.261318 4.1955
        4.18747 -4.46162 -0.270505
        0.693949 0.560262 -3.49009
        1.69723 -2.10952 4.56541
        2.69052 -2.09576 -0.0230384
        -3.83786 -3.5222 -3.75652
        0.706717 -0.451903 -0.496454
        -2.57537 0.891914 -4.3818
        7.321 2.24833 -4.05635
        -0.626201 4.7431 -1.8492
        2.28486 0.169781 0.22105
        0.377569 5.39295 -0.195077
        0.508953 -1.27271 -1.43661
        -4.0562 5.55286 1.48461
        1.96996 6.12719 0.822003
        1.33303 -3.49598 -1.6777
        3.80467 1.90512 2.01424
        -3.50963 -0.766563 -3.01389
        1.23371 -2.12825 1.1217
        4.78358 -0.286704 7.36993
        3.48153 3.18635 -0.927791
        2.17998 0.543488 4.46026
        4.66457 0.812746 3.01226
        1.50893 1.28154 2.19957
        4.42046 -0.83162 -2.1486
        0.0899057 1.09454 7.37664
        -2.13228 -2.64341 1.31816
        1.80398 0.221187 -1.78103
        -4.62595 0.819769 5.29758
        2.076 2.27083 -2.92731