<?xml version="1.0" encoding="UTF-8" standalone="no" ?>
<VTKFile byte_order="LittleEndian" type="UnstructuredGrid" version="0.1">
  <UnstructuredGrid>
    <Piece NumberOfCells="0" NumberOfPoints="15094">
      <PointData>
        <DataArray Name="velocities" NumberOfComponents="3" format="ascii" type="Float32">
        -1.02284 -1.68313 -1.23056
        -0.763122 -2.32329 2.28966
        2.78569 0.0306622 -1.83055
        0.51168 -0.0788519 -0.963612
        2.06372 1.88611 -0.848657
        2.17532 -1.10276 -2.51285
        0.642523 1.52265 -0.609486
        4.52146 3.36113 3.04272
        3.03495 -0.668054 1.83534
        1.19269 -2.01889 4.51687
        -0.289814 0.445246 -0.269286
        0.180762 1.98628 -2.14937
        0.287809 3.77846 1.0227
        -2.90598 0.654987 -1.56549
        0.133706 -3.95804 -2.80175
        1.6362 -0.712063 -1.50868
        -0.212703 -0.687837 -4.28169
        -1.6881 0.703009 -2.08834
        0.741191 -0.502869 2.09054
        0.0260503 -1.53751 -0.811049
        -2.55875 0.742035 2.54086
        5.93418 1.82149 -1.19369
        1.32428 0.346893 5.66629
        0.919525 -1.06601 -2.32506
        0.1856 -1.06923 -0.840825
        3.45427 -3.61821 0.657719
        -3.09805 -1.39724 1.3015
        0.476813 -2.6427 -1.85398
        3.28443 0.936223 2.34907
        0.457831 1.24573 2.88484
        0.9904 -2.71568 -0.301897
        2.46517 -1.83676 -1.79087
        3.60296 1.67231 1.30736
        0.825433 0.849604 0.489409
        -0.849965 1.50128 0.071214
        -1.9744 1.57494 0.80469
        1.26165 1.66543 3.09925
        -0.792728 -3.22156 1.94653
        0.604782 0.0730965 -3.512
        2.80405 0.625296 -2.15856
        -2.29838 -4.2824 -2.63881
        -0.269804 1.80179 1.11518
        0.476837 1.35574 3.84624
        -0.699323 -0.699183 1.49147
        1.45568 -3.45607 1.36655
        1.34845 -0.0291497 0.253516
        0.738987 1.66583 2.17183
        3.39999 0.0433157 3.86082
        -1.46871 0.901558 -2.74728
        -0.00936123 -0.38637 1.46104
        0.212041 -1.12818 -0.672757
        -1.45474 -2.04784 -0.653038
        -0.671894 1.9062 2.22655
        -0.850043 2.46635 0.759379
        2.73578 0.414773 0.219595
        3.16225 -0.326238 -1.03279
        4.71575 -3.08514 0.331149
        1.04772 3.02952 -2.23726
        2.51122 1.07048 3.21618
        0.0980871 2.21116 0.41918
        1.64807 -0.716355 0.472496
        4.55424 0.197866 0.699994
        1.96396 1.45237 -1.63997
        3.30822 0.47854 0.431965
        -1.60995 3.37252 -0.338428
        0.710953 1.04048 -0.772458
        1.31983 0.287112 0.763776
        -0.0596027 -0.471354 0.939617
        2.89761 2.04337 0.73691
        4.67294 -0.0522698 -0.384753
        -0.619779 -1.85841 0.845573
        3.62929 0.9315 -0.95472
        -0.606542 2.88325 -1.29537
        -0.688839 -0.116605 0.995093
        3.76529 1.02021 -0.144042
        1.53459 2.28837 3.05882
        2.14977 1.381 -2.42706
        0.786349 -0.755573 1.48817
        2.32017 1.88151 0.0483711
        -2.54757 2.52925 -1.10167
        2.00312 -0.142985 1.35527
        2.18318 -0.277189 0.758403
        0.963208 -0.830442 0.199346
        4.61094 -0.355949 -0.716635
        1.69801 3.04195 -0.612476
        0.78736 0.592676 2.21005
        4.4044 1.88759 -0.793137
        -1.7842 1.07667 1.63782
        1.03105 -0.515873 -3.23818
        1.29852 -2.56332 1.12015
        0.741774 3.52882 -1.85825
        2.04506 3.66264 2.16741
        3.04799 0.497707 -0.265112
        3.2157 1.91452 -1.82146
        3.96645 -1.73606 -1.88641
        0.791508 -2.79083 3.81142
        1.46178 -0.517478 -1.40728
        1.80499 1.06801 -1.68604
        -0.931026 1.76103 -1.47329
        3.46786 2.62451 -0.577586
        2.77717 0.14456 0.832613
        1.64026 3.39205 2.88059
        1.78416 3.45188 0.220684
        -1.88817 0.263273 -0.243697
        1.31058 3.06217 -0.875805
        3.30383 3.18506 -2.70515
        2.715 -0.212335 -1.73193
        0.369219 -2.40297 -0.966507
        -0.114456 1.61428 -3.02507
        0.796306 3.07885 -1.90298
        4.38098 2.74955 -0.28023
        0.730103 -1.4582 0.146093
        0.387782 1.73301 -0.415493
        4.87015 -0.163323 -0.514231
        3.40642 -3.5913 -1.27001
        1.11263 0.397012 1.10246
        0.313448 0.579221 0.94417
        0.0335902 -0.284343 -1.67281
        1.55499 -0.345949 2.48906
        -0.560671 -3.37677 -0.928231
        3.03756 -0.374654 -1.70559
        2.69056 1.05761 -0.449911
        -1.68265 0.99991 1.02146
        0.00671873 -0.425833 0.992625
        1.95493 -0.426638 4.60362
        -1.56571 -0.267289 -0.76653
        4.54677 -0.661147 -1.10379
        4.07865 0.394082 3.23009
        -2.62244 2.20783 -0.199226
        -1.16373 -1.08091 -0.266379
        4.56154 0.696838 0.04296
        3.0117 0.430173 -1.28935
        5.1987 1.16838 1.16878
        1.11499 -1.8117 -2.23661
        0.940689 2.13106 1.90727
        3.80807 -2.59318 -0.32738
        1.34314 1.12009 0.356836
        0.979163 -1.67587 -0.647908
        -0.0128902 1.17491 0.145275
        4.11347 3.53647 -0.541044
        3.99736 -0.331779 5.93132
        2.15009 -1.30267 -1.8727
        2.33821 1.60694 1.31331
        1.02416 2.12937 -0.610195
        4.24589 4.23239 -0.202352
        1.56953 -0.326134 -0.632244
        -0.310557 -2.14993 -1.58325
        -1.11069 3.44028 -0.377071
        -1.53174 -0.39951 0.12066
        -0.445678 -1.07652 -1.31189
        4.62252 -0.0786631 2.56436
        1.82776 2.91885 1.35912
        3.59093 -2.76989 -3.55653
        4.28028 2.25186 0.958299
        0.694194 -1.14089 1.98387
        1.56555 -1.76428 1.28155
        0.889811 1.13233 -0.490978
        2.27411 1.36402 3.13393
        0.652242 -0.257287 -1.55099
        2.79433 -0.53448 1.71563
        3.17718 4.7761 -0.051196
        2.90417 1.22352 -0.605228
        2.10377 0.336057 -0.931214
        4.5873 0.157699 -0.7658
        4.11514 -4.25842 0.248377
        4.65664 1.12825 -3.74017
        2.43969 -0.401552 1.36237
        -0.379025 -2.39793 -2.47
        0.211208 -0.029829 -4.98002
        1.98902 -2.1595 -1.75114
        5.79346 1.7204 0.722659
        3.3403 -0.54019 0.722805
        1.1962 0.225806 -1.55009
        1.38369 1.03583 -0.357435
        0.231498 0.469148 -2.31135
        4.10033 -1.01696 -2.97344
        -0.598242 -0.351161 -0.509131
        0.158238 -1.91675 4.11988
        -0.273821 0.388362 1.32857
        -0.0866126 1.71471 1.24926
        1.15317 3.04385 0.680645
        0.970215 -0.866686 -2.99903
        3.13596 1.19901 -0.551329
        4.21446 0.720255 2.01451
        3.38963 -1.06202 1.58329
        2.25616 0.812609 -2.15933
        -0.54997 0.936375 -1.76156
        -0.205925 0.176097 -1.52056
        2.09228 0.635155 2.45338
        -1.20035 -0.0113159 -0.684019
        4.54405 -0.870393 -2.11605
        -1.38792 -3.56379 4.3144
        -0.672734 -1.53129 -1.90446
        4.20013 -0.514002 -3.37826
        3.56725 0.391319 -0.68877
        6.02399 1.16436 0.218366
        2.043 0.0406317 -2.35751
        1.87992 3.02033 2.69126
        4.03383 3.6201 -0.93621
        1.45115 -2.11734 -0.595933
        -1.39403 -0.681916 1.45059
        0.694623 0.0852841 0.884949
        0.735581 -0.841267 -0.749794
        3.12718 -1.18416 0.922231
        3.10023 2.92238 -0.750582
        1.79863 -0.239351 1.22834
        0.955001 1.40348 1.60207
        1.06357 3.45975 2.90936
        2.0239 2.48615 3.04981
        1.19194 0.796242 -1.81668
        3.08302 0.970568 -1.43483
        -0.570699 0.942335 2.73295
        1.08913 -0.484769 3.37009
        2.86837 0.671685 1.76464
        1.10265 0.684723 0.639845
        2.05025 3.13676 -2.16417
        0.679037 0.879108 -0.945601
        2.38962 2.03809 -2.25232
        0.288899 0.932523 -0.560399
        -1.52237 0.587843 -0.672582
        1.70925 2.67252 0.186324
        1.30243 3.0354 -1.64991
        1.53319 1.32257 -1.77199
        -0.285535 0.112805 0.291107
        -0.897986 2.72376 0.927908
        1.25373 -1.50087 -1.59979
        0.323608 2.74963 -0.646661
        1.85085 1.84514 2.3187
        1.60632 2.3773 -3.90655
        1.54166 -3.13747 -0.252154
        2.54712 3.02707 1.88441
        -0.00961247 0.34106 -0.303318
        3.54402 0.639931 0.212451
        2.1799 2.72889 0.104345
        1.27857 -0.504437 -1.19313
        -2.19607 0.919515 1.1083
        -1.0672 -0.845082 -1.48045
        0.0106132 4.2315 -0.320749
        2.03961 -0.759055 0.77866
        1.30941 2.66666 -2.47634
        3.55116 3.6553 3.07808
        -0.26955 0.815395 1.1815
        -1.61337 -0.569375 -0.301498
        1.70145 -0.21105 0.612046
        0.462267 0.39882 -1.55107
        1.0804 3.22033 -2.98821
        1.71967 1.70164 -3.58074
        2.62012 -0.545005 -4.20525
        0.36828 2.20718 -0.479475
        2.4605 1.74722 -1.90229
        2.50042 0.741438 4.11457
        1.00773 -0.479257 1.12579
        -0.754158 0.651802 0.132762
        -1.45285 3.79884 0.598191
        -0.941371 -2.39041 -0.878688
        0.00817707 1.22016 0.453245
        2.54389 2.9764 -0.622744
        2.0581 2.19932 2.73252
        2.34894 3.51188 1.15563
        1.56566 3.16657 -0.498347
        2.03821 1.44971 -2.48966
        3.11005 2.55878 -3.63538
        -1.32677 -2.59294 -1.82325
        2.72979 -0.0838951 0.176113
        0.283905 1.88957 -1.2517
        2.57966 -4.27523 0.364997
        0.543515 0.911929 -0.106614
        -0.105518 3.18127 -3.52589
        0.932097 -1.38002 0.046815
        0.369458 -0.856132 -0.807978
        2.0544 -2.95606 -5.41166
        1.23047 1.30606 -2.011
        0.588186 4.01223 -0.985124
        0.336394 3.19101 -1.22202
        0.360525 3.29233 -2.48657
        -0.0791172 3.33267 -2.83525
        1.25079 -0.958043 -0.178781
        0.0515111 -0.284829 -0.46166
        0.0740168 0.816957 -0.578945
        2.52329 3.60326 3.19327
        3.27706 3.79029 3.54405
        1.03913 3.28877 4.64397
        0.0173371 2.18808 4.07699
        2.15 -0.604417 -5.33411
        1.01972 1.8334 2.45613
        0.0135928 -1.12955 -5.47863
        1.01625 1.39875 1.79462
        0.173988 -0.896355 -0.270353
        1.27551 0.957128 1.45017
        0.138773 -0.998118 -5.49386
        0.771411 -0.687257 0.0990358
        0.12983 0.843411 2.15054
        -0.0359487 -0.224562 -0.0254423
        1.52991 -0.54151 -5.68233
        -1.20531 2.08758 1.47692
        0.975068 1.13297 1.29953
        0.071851 0.999048 0.464408
        -0.0835108 -0.151127 -0.0874746
        -0.189304 2.98395 0.584827
        0.093869 0.760125 0.580864
        -0.00322079 0.624536 0.51432
        0.13861 3.19849 -0.144552
        0.0466195 2.96205 -0.137207
        1.58624 0.780234 0.62056
        2.13392 -0.399315 2.93461
        1.63529 2.49852 1.6998
        -0.114299 1.27261 2.09756
        0.0628376 -0.984156 -1.09494
        2.14879 -1.40846 -0.416373
        3.59588 -1.22079 0.365997
        -0.0755068 0.790295 -0.690442
        -0.344517 0.331607 -1.02909
        -1.13536 2.08336 1.5512
        1.46125 1.93221 2.65884
        0.540003 1.49984 1.87331
        0.939054 1.61621 1.32562
        -0.167256 -0.962517 -1.02182
        0.500605 0.420476 -0.341804
        0.079486 1.58251 -1.88863
        0.253772 2.25492 -1.12622
        2.45081 -3.68967 2.87504
        -0.269455 -2.05347 -1.46411
        2.15561 -2.62423 -0.0441321
        0.617178 -2.24695 0.285186
        -1.61487 -1.01676 0.677616
        0.160891 4.31645 -0.00983963
        0.0442199 3.26296 0.822637
        0.0397165 2.31497 0.89462
        2.24729 1.04326 2.12226
        2.75899 -0.771051 0.845752
        -0.068903 -0.903306 0.491357
        -0.133759 -0.835559 0.547587
        -0.0491101 3.58032 -2.41569
        0.147409 3.70624 -2.09407
        1.04402 4.0744 -1.03579
        2.74737 5.02006 0.533675
        -0.00162055 -1.15572 -5.47143
        -0.0376138 3.31895 -2.88609
        -0.00626927 3.31557 -2.89787
        -0.000820579 3.31578 -2.898
        -5.9134e-05 3.31617 -2.89798
        -0.027782 1.0351 -0.527097
        -0.00524865 1.04136 -0.538385
        -0.000453448 1.03978 -0.54114
        -3.64517e-05 1.03946 -0.541268
        0.00835327 2.13012 3.90904
        0.00516208 2.15912 3.88216
        0.000959791 2.16616 3.88213
        7.84193e-05 2.16688 3.88235
        -0.00324903 0.799821 2.19201
        -0.00314466 0.798433 2.19799
        -0.000527838 0.799943 2.19944
        -2.91232e-05 -1.15072 -5.4762
        -0.000346579 -1.15107 -5.47586
        -0.0134082 -0.17053 -0.143652
        -0.00154851 -1.15294 -5.47408
        0.00828055 2.87455 -0.0921138
        -0.000770284 -0.175595 -0.154447
        -0.0158713 0.650017 0.421314
        3.68764e-05 -0.176307 -0.155565
        0.00136557 2.85853 -0.0815902
        -0.00354773 0.655075 0.407437
        0.000241347 2.85667 -0.0802068
        -0.000143984 0.655477 0.406236
        2.17464e-05 0.655589 0.406077
        -0.0444244 1.37596 2.11031
        -0.00866699 1.40372 2.10928
        -0.00140896 1.40823 2.10904
        -0.000306648 -1.05955 -0.840547
        -0.0044583 -1.05814 -0.843085
        -0.0520003 1.49502 1.74137
        -0.00951421 1.52198 1.75039
        -0.00075908 1.52882 1.75581
        -3.24322e-05 1.52965 1.75666
        -0.0382654 -1.0418 -0.871953
        -7.66318e-05 0.57235 -0.622737
        -0.00119688 0.57283 -0.622612
        0.0810618 -2.48679 0.402088
        0.0227857 -2.47407 0.405618
        0.00453637 -2.46319 0.403489
        0.000397419 -2.46067 0.402943
        0.0111194 2.28027 1.0037
        0.00171107 2.28083 1.03547
        0.000220381 2.28217 1.04013
        -0.0250285 -0.803296 0.580327
        -0.00231051 -0.797966 0.584754
        1.20378e-05 -0.797374 0.584428
        9.99509e-06 -0.797296 0.584323
        -0.000133049 3.60553 -2.36912
        -0.0014562 3.60464 -2.36956
        -0.0116383 3.59904 -2.37745
        -0.0559674 0.643925 -0.652968
        -0.0119053 0.581967 -0.625905
        0.00121587 -1.05934 -0.840952
        6.8792e-05 -1.05954 -0.840518
        0.0289783 0.601808 -0.634733
        0.00404828 0.574724 -0.623059
        0.000348725 0.572417 -0.622669
        3.33203e-05 3.60558 -2.36917
        0.000466238 3.60531 -2.36913
        0.000290864 3.31605 -2.89798
        0.00226547 3.31546 -2.89806
        0.016345 3.31704 -2.89555
        0.00012116 1.03955 -0.541266
        0.00164372 1.04039 -0.540484
        0.0149492 1.04134 -0.533751
        -0.000336098 2.16672 3.88231
        -0.00249003 2.16431 3.88174
        -0.00828033 2.14772 3.88812
        0.000126366 0.800149 2.19961
        0.00143676 0.799395 2.19898
        0.00517052 0.797566 2.19588
        -0.0201874 0.815129 2.18667
        0.00206252 -1.15478 -5.47262
        0.000688036 -1.15163 -5.47529
        0.000116484 -1.15081 -5.47612
        0.0141456 -1.05389 -0.850472
        -9.07171e-06 -0.176339 -0.155621
        -6.0534e-05 2.85649 -0.0800947
        -0.000593643 2.85713 -0.0805465
        6.33947e-05 -0.176149 -0.155334
        -0.0033596 2.86273 -0.0844622
        0.00367517 -0.174139 -0.151653
        -0.0202824 2.90358 -0.108414
        0.0354542 -0.163779 -0.125594
        -2.62709e-05 0.655556 0.406132
        0.00104761 0.655355 0.406537
        0.00875463 0.654281 0.410549
        0.000371205 1.40875 2.10899
        0.00370398 1.40683 2.10911
        0.0200949 1.39588 2.10958
        0.078893 1.3397 2.10847
        0.000175245 1.52946 1.75646
        0.00287942 1.52692 1.75408
        0.0262084 1.51153 1.74449
        0.00448181 3.60297 -2.37144
        -0.00172135 -2.46137 0.403107
        -0.0108426 -2.4672 0.404335
        -0.0442312 -2.4828 0.405984
        -5.63878e-05 2.28235 1.04048
        -0.000631175 2.28168 1.03898
        -0.00484005 2.27976 1.02562
        -0.0214353 2.28801 0.963445
        0.0861408 -1.01548 -0.920773
        -1.23821e-05 -0.79732 0.584348
        0.000441337 -0.797527 0.584591
        0.00821874 -0.799321 0.584041
        0.0272461 3.59149 -2.39162
        -0.265213 0.808143 -0.625739
        -0.303131 2.20046 -0.901876
        0.0726739 0.703414 -0.672584
        -3.56083 4.99486 -1.58562
        -2.94792 3.1258 -0.170993
        0.0246786 3.56543 -2.41169
        -1.27237 3.59671 -2.02012
        2.56098 -1.17355 1.131
        0.0640469 3.32328 -2.86101
        -0.0735605 3.37584 -2.83288
        -0.479533 2.904 -1.29802
        0.082823 1.0156 -0.486964
        -1.90169 3.42312 0.777415
        0.431801 0.707214 -0.13964
        -0.154143 -0.705579 0.218133
        -0.225566 -0.196861 0.289439
        0.00145798 2.1272 3.96504
        -0.198366 2.51258 4.31973
        -0.706359 3.7273 4.08642
        -0.357089 1.0416 2.18289
        -1.305 3.62621 0.851595
        -1.05812 1.35617 1.08125
        -0.76994 1.67303 2.25773
        -0.882936 0.885651 1.8883
        -0.148903 -1.0856 -5.47797
        -0.769279 -0.664305 -5.50621
        0.0456865 -0.160528 -0.0620831
        -0.0781521 3.06096 -0.166402
        0.403264 -0.712899 -5.50611
        0.185555 3.12669 0.0339335
        -1.26822 -0.436893 -0.0227259
        0.823242 2.78035 1.51033
        1.27735 4.27775 1.49089
        -0.164487 1.03224 -0.894184
        -1.15975 1.39762 -0.965117
        0.0207408 0.63947 0.4528
        0.74725 0.705322 -0.341667
        0.0423185 0.671672 0.50624
        0.161659 0.918929 0.400504
        -0.357556 1.19697 1.21001
        -0.953404 2.2833 1.78416
        -2.83555 0.718012 2.75967
        -2.5223 0.398369 1.97871
        -0.298082 1.41654 0.958249
        0.0797941 1.49909 1.78446
        -0.605228 1.85484 2.46961
        -0.846816 1.89427 2.49905
        0.0782178 1.00457 1.11738
        -0.188219 -2.39638 0.362595
        -2.51324 -2.17235 0.262908
        0.32682 -2.51294 -0.204204
        -0.300401 -2.94289 0.699322
        -0.0220094 2.61401 0.847129
        0.37865 4.63177 1.06511
        1.76158 0.852325 0.0062369
        -0.00667178 -1.15171 -5.47178
        0.128692 -0.946931 -1.08617
        -1.66007 -1.29136 -0.728066
        -1.6543 -1.4362 0.124468
        -1.00856 -1.25099 0.129591
        0.0178553 -0.811871 0.571632
        -2.80781 -0.838562 0.585128
        -1.89687 -0.836895 0.278919
        -1.47773 1.50467 0.818797
        -1.25221 -0.832925 -1.25904
        -2.22187 -1.83385 -2.76865
        -3.89882 0.230368 0.0976234
        -0.613208 -0.330378 -3.76882
        0.182494 -1.05837 -3.42606
        -2.28798 -2.12983 1.23156
        -1.05797 3.68047 -1.46148
        -0.330543 2.40601 -0.220784
        -1.09496 0.374132 -0.998292
        -0.483071 0.247568 -2.0388
        -2.44657 0.108937 0.0131208
        -1.85436 0.145117 3.4961
        -3.30478 0.53501 0.821241
        -2.09955 0.565987 0.588406
        -1.39346 4.78716 0.795626
        -2.70545 1.6749 0.286744
        -1.9022 1.11882 2.76641
        -0.440951 -0.0558537 -2.72354
        -3.07309 2.30461 -3.88503
        1.87568 2.57731 0.525334
        -4.09381 -1.79771 0.969801
        -0.226202 2.38417 1.05953
        -0.341161 -2.71291 0.909063
        -1.70389 0.994846 3.12079
        0.589773 0.510103 -2.32596
        -0.0513157 1.11716 -0.466613
        -2.78057 -0.756745 0.813584
        -1.87198 1.95322 0.472453
        0.249458 2.14519 1.36445
        -1.06196 -0.312827 0.411213
        -1.0287 2.55801 -2.31623
        -3.62027 0.317982 2.37084
        -0.119738 -1.51055 -1.9784
        -0.137434 -2.39397 0.0959454
        -1.33598 4.65459 -1.53961
        1.54151 -2.99887 3.09783
        0.977412 3.49713 0.608921
        -0.763509 -0.0031901 0.845742
        -0.230554 2.27629 0.894063
        0.297832 0.876031 -0.737393
        1.16911 1.36966 -0.93529
        -0.449888 0.0667371 0.599001
        0.635463 -1.87832 3.50964
        -2.22359 -0.884025 -0.816885
        -0.857807 -0.417455 -0.735372
        -2.16282 0.686484 -0.352084
        -1.10013 0.578346 2.12227
        -1.88264 4.00663 0.34132
        -3.22581 1.63474 -0.559264
        -1.88603 -0.197754 -0.852127
        -2.75808 0.982544 -1.3536
        -1.08415 4.42032 1.62627
        0.674387 0.340473 -0.0968149
        -0.93198 3.6554 -1.91341
        0.533697 4.06513 0.0353901
        -1.03622 3.39671 -1.28711
        0.800892 4.52638 -0.247159
        -2.19826 2.3692 0.530205
        -1.24497 0.668065 -0.957214
        -2.4849 0.375941 -1.38245
        0.524463 1.26782 -0.256119
        -1.72065 -2.43665 -2.73003
        -0.757641 -0.562646 -0.852526
        -4.95279 2.82128 -1.94313
        -0.902359 0.830977 -1.18928
        -3.82869 3.00687 -0.445094
        -6.76447 -0.569907 0.588287
        -1.25252 -1.64173 0.736215
        -1.91133 -1.21994 0.973409
        -1.55045 -1.00132 -3.72639
        0.268288 0.424684 -2.60906
        3.28968 2.87351 -0.52602
        -2.78131 2.13118 -1.24183
        -1.63133 0.296778 -0.303206
        -3.22219 0.954086 -0.514712
        -1.94238 -0.147281 3.91895
        -2.84625 -0.399734 1.14772
        -3.9598 0.674278 0.284104
        -0.373701 -0.571317 1.60292
        -0.166419 1.874 -0.0455295
        2.36382 1.36396 -2.04172
        -1.40559 -1.47264 0.571101
        -5.55272 1.85047 1.82683
        -2.74936 -0.918544 0.364523
        -1.22409 0.0403682 0.838599
        -1.11028 -0.154145 -0.916795
        -1.34575 3.45256 5.90895
        -1.06139 -4.67174 2.13991
        0.330723 -2.10109 -0.198184
        -1.86292 -1.84028 -2.17753
        -0.384332 -0.20466 -1.95275
        -2.34151 1.78479 3.67952
        -0.560924 -0.216613 0.87361
        -1.87145 1.52399 1.4523
        -1.32772 -2.95395 -1.16284
        -0.616946 -0.842613 -0.629456
        1.63808 2.04331 -1.59891
        -2.13055 1.62144 -0.773732
        -0.765261 -0.605192 -1.0341
        0.0975176 3.71587 0.305343
        -3.13421 -0.280962 -2.11165
        -2.16126 0.709977 1.97477
        -1.32205 -3.12953 -0.348299
        -1.51066 4.17063 2.2768
        -1.28546 0.365705 -2.51647
        -3.64667 3.52964 4.20728
        -2.76296 -2.17263 0.649916
        -0.84054 1.03607 -0.259325
        -3.15674 0.811522 0.800927
        -2.99562 0.231018 0.855861
        -1.67213 -0.672249 -0.014424
        -2.2969 -3.0605 3.18321
        -0.730031 3.00771 0.71077
        -3.29306 0.602943 0.117592
        -3.96641 -1.93 -0.357576
        -2.33805 -0.128793 -3.68017
        0.622365 0.836561 0.686936
        -1.57216 1.02383 -1.36559
        -2.428 -2.5248 1.5135
        -3.77949 3.05178 -1.01559
        -0.661335 0.0670388 0.510667
        0.872753 1.6978 2.26495
        -1.62619 2.98091 0.74881
        -1.95343 2.47182 -0.488041
        -2.26765 0.691122 -0.0844773
        -1.67005 -0.0575792 0.313639
        -0.121389 0.911185 -0.0255471
        -0.226208 -1.52856 -3.68977
        -4.38975 0.556759 3.58232
        -0.591246 0.0561382 -3.03347
        -2.11386 2.17821 -1.72305
        0.759447 0.894858 -1.07005
        -2.73193 -1.49589 1.17103
        -1.63638 1.16999 -2.49572
        -1.17452 2.23049 -3.91908
        -4.05947 -2.63067 -3.10797
        -3.0711 1.75314 1.07073
        -0.857688 2.67504 -1.93987
        -2.41028 3.37265 -0.803336
        0.00930343 0.710548 2.10533
        -0.245712 3.92895 -0.611841
        -4.03666 2.09789 -1.10721
        -2.20236 1.65956 2.22175
        -4.67605 0.363964 -0.374495
        -1.88006 1.28323 -0.486878
        -3.456 -0.327223 -1.80708
        -0.218421 2.15794 1.57873
        -2.72897 -1.41156 0.808384
        1.24685 -0.603873 -0.0749143
        -0.816625 5.74918 -0.855087
        -4.18204 -1.4916 -3.54075
        -0.282055 -0.754119 0.54315
        -5.81408 -1.39112 -1.91787
        -1.49394 -2.15186 2.59329
        -0.662115 -0.942147 -0.807382
        -1.14481 2.92737 -3.36727
        -1.6152 3.14268 -3.01638
        -6.70727 1.86278 2.32632
        -3.41164 -0.63226 -0.516801
        -2.04151 0.670328 2.67261
        -1.06769 2.73059 3.6619
        -6.59508 1.571 -0.464695
        0.0239433 0.477042 -1.767
        -2.90862 -1.6412 -1.50724
        -4.92338 1.47687 -0.184979
        0.600709 2.25941 -2.6698
        -2.44163 -0.745819 0.565952
        0.031924 -0.490673 -2.88714
        -2.54727 0.990157 0.134105
        -0.329531 -0.482675 1.73503
        -1.53964 -2.52573 -0.0792138
        -3.35139 -1.9664 -2.3349
        -1.77888 -0.287744 2.48986
        -0.892874 2.02808 1.37614
        -3.56123 1.04531 -2.30337
        -1.81444 -2.44217 -2.77994
        -2.61318 0.183991 1.02574
        -3.05857 -3.77984 0.657391
        -4.35156 0.766411 -0.389206
        -5.88137 2.29806 -0.91477
        -0.845924 -0.163351 0.961976
        -2.08031 0.095981 -0.371049
        -0.823661 2.26925 -0.0634266
        -4.83911 2.1344 3.0807
        -1.43145 4.18328 -0.221048
        0.627507 -0.652018 0.728375
        -2.07944 -2.81695 -0.472266
        2.46941 -3.87797 -3.50209
        -1.38839 -3.53266 -1.70513
        -1.03549 -2.50474 0.0358168
        1.60176 -1.00015 -0.333494
        0.452023 -2.77818 -1.51132
        -2.09365 2.25231 1.89641
        -2.55296 -1.10077 1.86044
        -1.13978 2.01517 0.159211
        -5.14926 0.201046 3.0245
        -2.69336 2.77683 -1.22656
        2.7138 1.02198 -0.99533
        -1.67468 -2.55626 -0.558801
        -2.01197 2.62581 0.276076
        -1.26278 -2.03613 -1.1233
        -3.46357 1.93283 -3.52547
        -6.62004 0.477549 0.221833
        -5.13463 1.04016 -0.489042
        -1.59225 2.38075 -1.50717
        -4.04569 -3.45043 1.29969
        0.689322 0.805514 -1.50374
        -0.666809 2.29118 -0.405873
        1.47258 -1.11179 0.729722
        -0.895373 1.27864 0.852511
        -0.874307 1.658 0.912061
        -1.91727 -2.29725 -3.18691
        -2.10311 -3.6133 -0.613726
        0.928432 -2.45614 0.469149
        -1.51314 0.607988 -2.62453
        0.824057 1.8392 -1.51973
        -2.60635 -0.258435 -1.54763
        0.11466 -1.02203 -2.44894
        -0.181325 5.19348 -0.0599868
        1.78339 1.97113 -0.359653
        1.09883 0.152095 -1.01696
        1.06243 1.06374 -1.39838
        -1.14916 2.27827 -0.304756
        -0.291916 -3.14154 0.160708
        3.37323 -1.4327 0.128294
        -4.18872 0.366127 3.03789
        -1.09589 -2.97601 -5.82412
        1.44216 2.06787 -0.791603
        -1.11095 -0.101863 0.869907
        -0.681768 -1.46289 2.43797
        4.54276 0.736288 0.154733
        -2.54119 -0.501405 0.695873
        -5.66983 -0.0383413 1.47012
        -0.898259 -0.0286417 -4.3364
        -1.76314 1.46257 0.704911
        0.507755 0.0386123 -0.459639
        -1.90218 3.19317 -4.44642
        0.77889 -1.56252 -6.70951
        1.88675 1.43488 2.31611
        2.23335 -0.269885 -3.23217
        -3.06123 0.0752883 0.862214
        -2.17247 1.3091 1.03459
        0.605333 2.94328 -7.0138
        -2.14726 -1.66023 2.98882
        -2.05603 -0.763333 -2.29366
        1.4309 0.040894 -0.626531
        -0.269727 3.04372 0.0550987
        2.39025 -1.46834 3.22166
        -6.58151 -1.19713 0.135195
        -4.4482 3.5559 -1.02847
        0.522672 0.637871 1.09948
        -0.308265 0.874149 2.18348
        -1.48716 -1.64621 -1.39315
        -1.75731 2.28851 1.05079
        1.39702 0.734675 -4.15649
        -0.576664 -1.08424 -0.418704
        -2.91487 -4.21723 3.17796
        -1.74669 3.27543 1.84102
        -2.08945 0.527365 0.347149
        0.084211 1.38048 3.8086
        2.12533 -0.666219 1.36303
        -1.63258 -0.76837 -0.561602
        0.712493 3.18726 -1.5603
        -5.17072 -2.06124 -3.3855
        -0.836869 -0.756454 0.582899
        -0.422467 -1.87852 1.19893
        -2.26937 -0.482376 1.52769
        -3.55292 -0.0291027 -1.60943
        0.401098 1.27436 1.12587
        2.42011 1.44366 0.000323018
        0.196865 -0.863066 1.17009
        0.680148 1.05016 -2.61265
        0.0478342 4.6336 -0.0429986
        0.179942 -2.11063 1.26237
        -1.21849 1.75157 -1.71226
        -1.36861 2.87564 -0.957081
        -1.31616 2.09118 2.44092
        -0.693999 1.47413 0.65107
        1.61903 0.841763 1.6857
        -0.641695 2.11533 1.73084
        -1.07886 -5.52685 1.90156
        -0.258462 -0.649935 -4.2653
        -0.265911 1.26045 0.558543
        1.48462 -0.706194 -0.501971
        -1.20839 -1.53869 1.73708
        2.08897 -0.386127 1.24456
        2.4275 -2.23678 2.32572
        2.76064 0.733381 1.76531
        1.88077 -2.04414 -4.57245
        3.16215 2.24025 -1.02716
        -1.81599 1.81714 -2.53027
        2.89555 2.40923 -1.81619
        -0.300782 -0.300106 3.96307
        2.36765 -0.763342 0.244124
        2.52544 -1.5039 -2.01625
        -1.09207 0.522226 -1.17519
        2.86465 6.04338 1.90229
        3.44706 2.29918 -2.50183
        1.63789 -0.0386346 3.07363
        3.5009 -1.03839 -2.11567
        -0.90029 -0.687711 -2.52403
        0.903914 0.164438 0.34845
        -2.34147 -0.945589 1.54049
        2.04533 -0.307652 4.70506
        5.40622 -2.4868 -2.02645
        3.06636 -0.557777 0.937049
        4.74605 0.296492 -1.05254
        1.40906 -4.38511 0.390998
        3.01329 -5.65003 0.652243
        -2.56761 -0.922732 -1.03343
        -0.481124 4.91941 -1.65373
        0.28196 -0.780293 1.1103
        -0.0784888 0.356233 0.478675
        2.60282 3.36724 1.38164
        0.120718 3.0025 1.71437
        0.803672 -2.16112 0.129135
        0.672163 -0.690528 2.26548
        -0.839906 0.976889 1.44672
        0.653881 0.991008 -0.599333
        -2.21606 1.78695 3.01163
        -1.07404 2.61806 -0.665782
        1.2045 5.32461 -0.792486
        -2.89043 1.21928 5.21885
        -2.57697 0.38223 2.00451
        1.2115 0.456506 0.259577
        -1.526 -1.02906 -0.770674
        1.12592 -1.32275 -0.925688
        -0.364658 2.51666 0.436048
        0.681149 2.35721 0.773453
        -1.16322 -4.43493 -0.0961795
        0.145295 -1.12308 0.401634
        2.93577 -3.76014 -2.21337
        0.905239 -2.45191 -1.59065
        1.23705 0.416615 1.85789
        1.29368 -2.72881 3.02344
        1.58074 -0.503596 -1.08331
        2.54581 2.97557 1.42449
        0.553666 3.2429 -0.445706
        1.37997 2.86213 -0.302075
        2.36478 2.45255 0.0698175
        -1.92623 1.72577 2.18667