<?xml version="1.0" encoding="UTF-8" standalone="no" ?>
<VTKFile byte_order="LittleEndian" type="UnstructuredGrid" version="0.1">
  <UnstructuredGrid>
    <Piece NumberOfCells="0" NumberOfPoints="15094">
      <PointData>
        <DataArray Name="velocities" NumberOfComponents="3" format="ascii" type="Float32">
        -0.576987 -0.498741 -3.10099
        0.115959 -1.61213 -1.72247
        0.0716772 -1.46669 -1.67111
        -2.3433 2.22819 -1.00097
        0.322513 0.18986 2.33338
        0.312963 0.344449 1.76566
        -0.957284 0.466971 -4.57901
        0.944017 -1.39194 -1.53797
        0.294901 -0.822208 -2.06241
        -1.82227 -1.68029 0.266458
        0.587723 0.459037 -1.19249
        0.328071 0.258117 -0.772255
        -3.56656 1.17655 -2.08957
        -0.0329448 1.12385 -1.25592
        0.343094 0.265559 -0.740102
        0.279104 -2.46053 -0.662816
        0.580345 -2.34228 -0.0421316
        0.114514 -2.23889 -0.0484269
        -0.778262 0.331515 -3.70658
        0.927855 -0.0614037 -0.233718
        -3.15723 0.485596 -0.519735
        0.371311 0.290628 -0.774621
        -0.325547 -0.119722 -1.82284
        0.205905 0.178615 -1.14411
        -3.08947 -0.397838 -2.46017
        0.51197 -4.80583 -1.39653
        0.276705 -4.43164 -1.52282
        -3.53104 -2.50881 -1.34441
        0.297468 -0.141521 -2.04538
        0.51034 0.357196 -1.45303
        -2.17798 0.456438 -1.91995
        0.155852 0.237078 -0.79181
        0.177421 0.291637 -0.465262
        -2.39144 -0.561232 -0.78424
        0.498055 -4.33572 0.758555
        0.328461 -3.75738 1.11229
        -2.40547 3.32973 0.544254
        0.448504 1.117 4.13369
        0.350939 1.44275 3.8535
        -2.65179 1.554 1.63184
        0.901932 0.469727 4.10555
        0.314896 0.512915 2.3102
        -0.589331 0.434269 -4.24505
        -0.845035 0.030152 -3.32255
        0.20069 0.173079 -2.00396
        -0.822591 -0.104345 -3.39969
        -0.229623 0.558288 -2.59055
        0.370133 0.359698 -2.23566
        -0.219878 0.493314 -5.60887
        -0.358157 -0.15969 -4.81387
        0.176118 -0.552475 -4.19355
        -1.28737 -0.523482 -3.30738
        -0.422114 -0.774885 -3.19758
        0.264244 -0.979877 -2.68787
        -3.64169 -2.60895 -1.30369
        0.132317 -1.24127 -1.47902
        0.0618255 -1.19124 -1.32298
        0.0107516 -1.19663 -1.27613
        0.196586 0.356031 1.08899
        0.0716793 0.306718 0.368363
        0.0117103 0.312775 0.147308
        0.231374 -0.667841 -2.3965
        0.0849938 -0.464869 -2.64397
        0.0129763 -0.374742 -2.7158
        0.205282 0.275095 -0.430514
        0.0775157 0.412629 -0.0358566
        0.0126569 0.419447 0.0927166
        0.303325 0.39075 -0.860645
        0.164736 0.405828 -1.2692
        0.0373469 0.440563 -1.52016
        0.00371493 0.459227 -1.5719
        0.0894944 -2.11523 -0.0945434
        0.0382203 -2.03137 -0.178483
        0.00674861 -2.02083 -0.209651
        0.279671 0.298421 -1.15096
        0.0952139 0.29292 -1.57921
        0.0128301 0.324839 -1.7154
        0.179336 0.249804 -0.873216
        0.119073 0.334501 -0.509741
        0.0328474 0.29723 -0.291779
        0.00416762 0.27868 -0.246564
        0.257866 -4.43866 -1.65507
        0.13526 -4.30474 -1.66218
        0.0272328 -4.22585 -1.63089
        0.00258423 -4.21193 -1.62317
        0.318051 0.249038 -1.32669
        0.154901 0.326613 -0.942167
        0.0383121 0.360343 -0.708908
        0.0042351 0.352577 -0.661389
        0.187756 0.459005 -0.172285
        0.0942299 0.449113 0.13944
        0.0173607 0.402182 0.23879
        0.282655 -3.64108 1.16812
        0.129491 -3.5314 1.21272
        0.027261 -3.48571 1.22777
        0.00307389 -3.47783 1.23018
        0.194247 1.5955 3.62601
        0.0696953 1.64489 3.30669
        0.0126976 1.67065 3.19353
        0.206119 0.651798 1.9719
        0.111688 0.610373 1.33246
        0.0294554 0.595211 0.963081
        0.00358554 0.60061 0.891203
        0.406691 0.157904 -2.12426
        0.35817 0.174972 -2.4259
        0.0976906 0.285124 -2.71206
        0.0117952 0.320317 -2.794
        0.509668 0.28749 -2.4138
        0.225799 0.37042 -2.81378
        0.0366567 0.434366 -3.00526
        0.312993 -0.517423 -4.1789
        0.241756 -0.297329 -4.27045
        0.0589123 -0.163886 -4.3771
        0.00671529 -0.136433 -4.40689
        0.392315 -0.855553 -2.71562
        0.186166 -0.629175 -2.9458
        0.0334957 -0.531174 -3.07795
        0.00098489 -1.19904 -1.27005
        4.38186e-05 -1.19939 -1.26965
        -8.41498e-09 -1.19942 -1.26965
        -8.21204e-08 -1.19942 -1.26965
        0.000819594 0.316421 0.121713
        -5.73438e-06 0.316788 0.12065
        -5.63621e-06 0.316792 0.120706
        -3.87427e-07 0.31679 0.120714
        0.000882589 -0.360246 -2.72572
        -3.96613e-06 -0.359191 -2.72641
        -4.4604e-06 -0.35918 -2.72642
        -3.05085e-07 -0.359184 -2.72642
        0.000883541 0.414491 0.10887
        -1.10214e-06 0.413759 0.109607
        -5.14299e-06 0.413727 0.109574
        -3.48236e-07 0.413729 0.109568
        0.000126462 0.461954 -1.57699
        -1.0901e-05 0.462129 -1.57721
        -1.3999e-06 0.462129 -1.57721
        -4.41678e-08 0.462128 -1.5772
        0.000608468 -2.02155 -0.214367
        2.38103e-05 -2.0218 -0.214741
        -4.92118e-07 -2.02182 -0.214754
        -7.75466e-08 -2.02182 -0.214754
        0.000718858 0.332443 -1.73357
        -1.56635e-05 0.333141 -1.73478
        -5.12645e-06 0.33316 -1.7348
        -2.69961e-07 0.333158 -1.7348
        0.00026176 0.276 -0.24242
        1.41426e-06 0.275822 -0.24228
        -8.17023e-07 0.275821 -0.242287
        -4.48316e-08 0.275821 -0.242288
        9.11946e-05 -4.21089 -1.6225
        -3.74219e-06 -4.21088 -1.6225
        -5.55956e-07 -4.21088 -1.6225
        -1.54471e-08 -4.21088 -1.6225
        0.000165731 0.35037 -0.657414
        -1.21853e-05 0.350188 -0.657361
        -1.72249e-06 0.350187 -0.657379
        -6.60726e-08 0.350188 -0.657381
        0.00156986 0.391791 0.250781
        5.73896e-05 0.390807 0.251319
        -2.28292e-06 0.390771 0.251297
        -2.95135e-07 0.390772 0.251293
        0.000178257 -3.47722 1.23038
        1.12732e-06 -3.4772 1.23039
        -4.57547e-07 -3.4772 1.23039
        -2.46714e-08 -3.4772 1.23039
        0.00114333 1.67657 3.17868
        3.1852e-05 1.67711 3.17785
        -3.70285e-06 1.67712 3.17785
        -3.81859e-07 1.67712 3.17786
        0.000171571 0.601789 0.885381
        -7.94871e-06 0.601858 0.885278
        -1.54939e-06 0.601854 0.885299
        -6.66382e-08 0.601854 0.885301
        0.000704216 0.324842 -2.80449
        5.67874e-06 0.325135 -2.80519
        -1.90681e-06 0.32514 -2.8052
        -9.19703e-08 0.325139 -2.8052
        0.00291095 0.446207 -3.03851
        7.96154e-05 0.447266 -3.04141
        -5.79371e-06 0.447306 -3.04152
        -5.31561e-07 0.447304 -3.04151
        0.000390003 -0.133747 -4.41057
        4.1745e-06 -0.133627 -4.4108
        -8.19306e-07 -0.133628 -4.4108
        -3.57547e-08 -0.133629 -4.4108
        0.00304304 -0.514675 -3.10368
        0.00012235 -0.513259 -3.10619
        -2.68375e-06 -0.513207 -3.10631
        -4.58364e-07 -0.513208 -3.10631
        1.35281e-09 0.601854 0.885301
        2.10887e-10 0.601854 0.885301
        3.69626e-12 0.601854 0.885301
        2.5718e-12 0.350188 -0.657381
        -2.50992e-10 -1.19942 -1.26965
        2.88587e-10 -1.19942 -1.26965
        1.06677e-11 -1.19942 -1.26965
        -6.98909e-14 -1.19942 -1.26965
        -2.92199e-09 0.31679 0.120715
        8.84039e-10 0.31679 0.120715
        3.64437e-11 0.31679 0.120715
        -1.13117e-14 0.31679 0.120715
        -3.15511e-09 -0.359184 -2.72642
        5.82297e-10 -0.359184 -2.72642
        2.46145e-11 -0.359184 -2.72642
        -6.92862e-14 -0.359184 -2.72642
        -1.66349e-09 0.413729 0.109567
        8.36861e-10 0.413729 0.109567
        3.12923e-11 0.413729 0.109567
        -1.86115e-13 0.413729 0.109567
        1.82539e-09 0.462128 -1.5772
        1.61764e-10 0.462128 -1.5772
        1.84287e-13 0.462128 -1.5772
        -1.05828e-09 -2.02182 -0.214754
        1.75305e-10 -2.02182 -0.214754
        7.47708e-12 -2.02182 -0.214754
        7.31377e-14 -2.02182 -0.214754
        2.81362e-09 0.333158 -1.7348
        8.40524e-10 0.333158 -1.7348
        2.39578e-11 0.333158 -1.7348
        -2.89107e-13 0.333158 -1.7348
        4.03501e-10 0.275821 -0.242288
        1.0468e-10 0.275821 -0.242288
        6.32552e-13 0.275821 -0.242288
        9.43334e-10 -4.21088 -1.6225
        6.86716e-11 -4.21088 -1.6225
        -2.87387e-14 -4.21088 -1.6225
        1.61124e-09 0.350188 -0.657381
        2.03789e-10 0.350188 -0.657381
        -4.3205e-09 0.390773 0.251293
        6.43069e-10 0.390773 0.251293
        2.92795e-11 0.390773 0.251293
        5.54532e-14 0.390773 0.251293
        1.20763e-10 -3.4772 1.23039
        5.2532e-11 -3.4772 1.23039
        9.48916e-13 -3.4772 1.23039
        -8.84997e-09 1.67712 3.17786
        5.61675e-10 1.67712 3.17786
        3.51249e-11 1.67712 3.17786
        2.5981e-13 1.67712 3.17786
        1.82147e-09 0.325139 -2.8052
        2.68774e-10 0.325139 -2.8052
        3.73479e-12 0.325139 -2.8052
        -5.11832e-09 0.447304 -3.04151
        1.0746e-09 0.447304 -3.04151
        3.84591e-11 0.447304 -3.04151
        -4.49672e-13 0.447304 -3.04151
        1.08805e-09 -0.133629 -4.4108
        1.15741e-10 -0.133629 -4.4108
        1.00573e-12 -0.133629 -4.4108
        -1.13695e-08 -0.513209 -3.10631
        6.0804e-10 -0.513209 -3.10631
        3.40167e-11 -0.513209 -3.10631
        -1.59906e-13 -0.513209 -3.10631
        -4.11408e-13 0.601854 0.885301
        -2.67043e-13 0.601854 0.885301
        -2.63295e-13 0.601854 0.885301
        -2.60764e-13 0.601854 0.885301
        -2.11682e-13 -4.21088 -1.6225
        -2.16174e-13 -4.21088 -1.6225
        -2.11522e-13 -4.21088 -1.6225
        -4.8861e-13 0.350188 -0.657381
        -4.18682e-13 0.350188 -0.657381
        -4.22292e-13 0.350188 -0.657381
        -4.1587e-13 0.350188 -0.657381
        2.45304e-13 0.31679 0.120715
        3.19089e-13 -0.359184 -2.72642
        2.58992e-13 0.31679 0.120715
        3.44734e-13 -0.359184 -2.72642
        1.41667e-13 -1.19942 -1.26965
        3.26022e-13 -0.359184 -2.72642
        2.57454e-13 0.31679 0.120715
        1.43771e-13 -1.19942 -1.26965
        3.46935e-13 -0.359184 -2.72642
        1.41461e-13 -1.19942 -1.26965
        2.64728e-13 0.31679 0.120715
        4.09323e-13 0.413729 0.109567
        -4.41537e-13 0.462128 -1.5772
        -3.22586e-13 0.462128 -1.5772
        1.52396e-13 -1.19942 -1.26965
        4.02277e-13 0.413729 0.109567
        -3.36802e-13 0.462128 -1.5772
        -3.45222e-13 0.462128 -1.5772
        4.35779e-13 0.413729 0.109567
        4.16029e-13 0.413729 0.109567
        2.72156e-13 -2.02182 -0.214754
        2.78977e-13 -2.02182 -0.214754
        2.73016e-13 -2.02182 -0.214754
        2.89262e-13 -2.02182 -0.214754
        3.18671e-13 0.333158 -1.7348
        3.24425e-13 0.333158 -1.7348
        3.25468e-13 0.333158 -1.7348
        3.30635e-13 0.333158 -1.7348
        -3.30572e-13 0.275821 -0.242288
        -2.417e-13 0.275821 -0.242288
        -2.45044e-13 0.275821 -0.242288
        -2.31051e-13 0.275821 -0.242288
        -2.47883e-13 -4.21088 -1.6225
        2.33799e-13 0.390773 0.251293
        2.40795e-13 0.390773 0.251293
        2.25501e-13 0.390773 0.251293
        2.25798e-13 0.390773 0.251293
        -1.76825e-13 -3.4772 1.23039
        -1.49529e-13 -3.4772 1.23039
        -1.43759e-13 -3.4772 1.23039
        -1.35874e-13 -3.4772 1.23039
        2.32565e-13 1.67712 3.17786
        2.46405e-13 1.67712 3.17786
        2.43788e-13 1.67712 3.17786
        2.5665e-13 1.67712 3.17786
        -2.16305e-13 0.325139 -2.8052
        -1.5153e-13 0.325139 -2.8052
        -1.58395e-13 0.325139 -2.8052
        -1.60134e-13 0.325139 -2.8052
        1.41475e-13 0.447304 -3.04151
        1.47333e-13 0.447304 -3.04151
        1.47845e-13 0.447304 -3.04151
        1.39647e-13 0.447304 -3.04151
        -1.52642e-13 -0.133629 -4.4108
        -1.13886e-13 -0.133629 -4.4108
        -1.06845e-13 -0.133629 -4.4108
        -1.09777e-13 -0.133629 -4.4108
        1.54007e-13 -0.513209 -3.10631
        1.73201e-13 -0.513209 -3.10631
        1.57547e-13 -0.513209 -3.10631
        1.71385e-13 -0.513209 -3.10631
        3.30727e-13 0.333158 -1.7348
        -2.59466e-13 0.601854 0.885301
        -2.63027e-13 0.601854 0.885301
        -2.67384e-13 0.601854 0.885301
        -2.62975e-13 0.601854 0.885301
        -2.23832e-13 -4.21088 -1.6225
        -1.97503e-13 -4.21088 -1.6225
        -2.07322e-13 -4.21088 -1.6225
        -2.16077e-13 -4.21088 -1.6225
        -4.34898e-13 0.350188 -0.657381
        -4.15087e-13 0.350188 -0.657381
        -4.15517e-13 0.350188 -0.657381
        -4.14871e-13 0.350188 -0.657381
        3.38965e-13 -0.359184 -2.72642
        3.08909e-13 -0.359184 -2.72642
        3.51831e-13 -0.359184 -2.72642
        2.58392e-13 0.31679 0.120715
        2.62584e-13 0.31679 0.120715
        1.4233e-13 -1.19942 -1.26965
        2.5829e-13 0.31679 0.120715
        4.03272e-13 0.413729 0.109567
        1.32585e-13 -1.19942 -1.26965
        -3.18938e-13 0.462128 -1.5772
        1.38377e-13 -1.19942 -1.26965
        4.23077e-13 0.413729 0.109567
        -3.41727e-13 0.462128 -1.5772
        4.21335e-13 0.413729 0.109567
        -3.56615e-13 0.462128 -1.5772
        -3.3305e-13 0.462128 -1.5772
        2.85614e-13 -2.02182 -0.214754
        2.63107e-13 -2.02182 -0.214754
        2.75938e-13 -2.02182 -0.214754
        3.21548e-13 0.333158 -1.7348
        3.26337e-13 0.333158 -1.7348
        -2.27114e-13 0.275821 -0.242288
        -2.42571e-13 0.275821 -0.242288
        -2.59347e-13 0.275821 -0.242288
        -2.35498e-13 0.275821 -0.242288
        2.3103e-13 0.390773 0.251293
        2.51754e-13 0.390773 0.251293
        2.35959e-13 0.390773 0.251293
        -1.45703e-13 -3.4772 1.23039
        -1.52599e-13 -3.4772 1.23039
        -1.43535e-13 -3.4772 1.23039
        -1.40789e-13 -3.4772 1.23039
        2.54267e-13 1.67712 3.17786
        2.26966e-13 1.67712 3.17786
        2.44189e-13 1.67712 3.17786
        -1.66951e-13 0.325139 -2.8052
        -1.53157e-13 0.325139 -2.8052
        -1.54454e-13 0.325139 -2.8052
        -1.61562e-13 0.325139 -2.8052
        1.51007e-13 0.447304 -3.04151
        1.44973e-13 0.447304 -3.04151
        1.42796e-13 0.447304 -3.04151
        -1.088e-13 -0.133629 -4.4108
        -1.11987e-13 -0.133629 -4.4108
        -1.06588e-13 -0.133629 -4.4108
        -1.10929e-13 -0.133629 -4.4108
        1.664e-13 -0.513209 -3.10631
        1.65486e-13 -0.513209 -3.10631
        1.57149e-13 -0.513209 -3.10631
        3.36256e-13 0.333158 -1.7348
        3.42503e-13 0.333158 -1.7348
        3.22748e-13 0.333158 -1.7348
        3.14104e-13 0.333158 -1.7348
        2.23037e-13 0.390773 0.251293
        2.27194e-13 0.390773 0.251293
        2.58601e-13 0.390773 0.251293
        -2.51302e-13 0.601854 0.885301
        -2.64576e-13 0.601854 0.885301
        -2.63209e-13 0.601854 0.885301
        -2.16038e-13 -4.21088 -1.6225
        -1.99854e-13 -4.21088 -1.6225
        -2.25074e-13 -4.21088 -1.6225
        -4.31148e-13 0.350188 -0.657381
        -3.99735e-13 0.350188 -0.657381
        -4.49185e-13 0.350188 -0.657381
        3.34308e-13 -0.359184 -2.72642
        3.17903e-13 -0.359184 -2.72642
        3.48061e-13 -0.359184 -2.72642
        3.41866e-13 -0.359184 -2.72642
        2.53385e-13 0.31679 0.120715
        2.22031e-13 0.31679 0.120715
        2.61297e-13 0.31679 0.120715
        2.98398e-13 0.31679 0.120715
        1.56123e-13 -1.19942 -1.26965
        4.04841e-13 0.413729 0.109567
        4.24499e-13 0.413729 0.109567
        1.36944e-13 -1.19942 -1.26965
        4.23611e-13 0.413729 0.109567
        1.39348e-13 -1.19942 -1.26965
        4.12076e-13 0.413729 0.109567
        1.44228e-13 -1.19942 -1.26965
        -3.37084e-13 0.462128 -1.5772
        -3.23313e-13 0.462128 -1.5772
        -3.45195e-13 0.462128 -1.5772
        2.85997e-13 -2.02182 -0.214754
        2.6973e-13 -2.02182 -0.214754
        2.81627e-13 -2.02182 -0.214754
        2.84341e-13 -2.02182 -0.214754
        -2.36935e-13 0.275821 -0.242288
        -2.29273e-13 0.275821 -0.242288
        -2.52705e-13 0.275821 -0.242288
        2.25314e-13 0.390773 0.251293
        -1.45239e-13 -3.4772 1.23039
        -1.50701e-13 -3.4772 1.23039
        -1.40355e-13 -3.4772 1.23039
        2.52217e-13 1.67712 3.17786
        2.28282e-13 1.67712 3.17786
        2.55287e-13 1.67712 3.17786
        2.56187e-13 1.67712 3.17786
        1.61887e-13 -0.513209 -3.10631
        -1.67996e-13 0.325139 -2.8052
        -1.56682e-13 0.325139 -2.8052
        -1.59248e-13 0.325139 -2.8052
        1.52606e-13 0.447304 -3.04151
        1.37013e-13 0.447304 -3.04151
        1.4629e-13 0.447304 -3.04151
        1.53632e-13 0.447304 -3.04151
        -1.1135e-13 -0.133629 -4.4108
        -1.1367e-13 -0.133629 -4.4108
        -1.00667e-13 -0.133629 -4.4108
        1.7301e-13 -0.513209 -3.10631
        1.64153e-13 -0.513209 -3.10631
        1.70338e-13 -0.513209 -3.10631
        3.1485e-13 0.333158 -1.7348
        3.37933e-13 0.333158 -1.7348
        3.29496e-13 0.333158 -1.7348
        2.37283e-13 0.390773 0.251293
        2.00994e-13 0.390773 0.251293
        3.76322e-16 0.333158 -1.7348
        2.77004e-13 0.390773 0.251293
        8.12855e-14 0.390773 0.251293
        -2.73329e-13 0.601854 0.885301
        -2.44314e-13 0.601854 0.885301
        -2.5441e-13 0.601854 0.885301
        -2.03579e-13 -4.21088 -1.6225
        6.3249e-14 0.601854 0.885301
        -2.15032e-13 -4.21088 -1.6225
        -1.50127e-13 -4.21088 -1.6225
        1.35815e-13 -4.21088 -1.6225
        -4.06977e-13 0.350188 -0.657381
        -4.54746e-13 0.350188 -0.657381
        -4.66556e-13 0.350188 -0.657381
        3.55842e-13 -0.359184 -2.72642
        -1.30719e-13 0.350188 -0.657381
        3.66596e-13 -0.359184 -2.72642
        4.14187e-13 -0.359184 -2.72642
        9.23899e-14 -0.359184 -2.72642
        2.62119e-13 0.31679 0.120715
        2.11085e-13 0.31679 0.120715
        1.41495e-13 -1.19942 -1.26965
        4.10332e-13 0.413729 0.109567
        2.89142e-13 0.31679 0.120715
        3.94045e-13 0.413729 0.109567
        1.26389e-13 -1.19942 -1.26965
        3.4218e-13 0.413729 0.109567
        3.99858e-14 0.413729 0.109567
        1.38113e-13 0.31679 0.120715
        1.42831e-13 -1.19942 -1.26965
        -3.43685e-13 0.462128 -1.5772
        1.10663e-15 -1.19942 -1.26965
        -3.23112e-13 0.462128 -1.5772
        -3.45217e-13 0.462128 -1.5772
        5.24414e-14 0.462128 -1.5772
        2.79667e-13 -2.02182 -0.214754
        2.48407e-13 -2.02182 -0.214754
        1.71274e-13 -2.02182 -0.214754
        1.49147e-14 -2.02182 -0.214754
        -2.37209e-13 0.275821 -0.242288
        -2.5784e-13 0.275821 -0.242288
        -2.77899e-13 0.275821 -0.242288
        2.17824e-14 0.275821 -0.242288
        -1.4622e-13 -3.4772 1.23039
        -1.39619e-13 -3.4772 1.23039
        -1.23366e-13 -3.4772 1.23039
        1.03384e-13 -3.4772 1.23039
        2.41038e-13 1.67712 3.17786
        2.64819e-13 1.67712 3.17786
        3.12043e-13 1.67712 3.17786
        1.41845e-13 1.67712 3.17786
        1.6761e-13 -0.513209 -3.10631
        1.65657e-13 -0.513209 -3.10631
        2.57683e-13 -0.513209 -3.10631
        7.35417e-14 -0.513209 -3.10631
        -1.50942e-13 0.325139 -2.8052
        -1.58206e-13 0.325139 -2.8052
        -1.89875e-13 0.325139 -2.8052
        1.17672e-13 0.325139 -2.8052
        1.48347e-13 0.447304 -3.04151
        1.59098e-13 0.447304 -3.04151
        2.23417e-13 0.447304 -3.04151
        7.03967e-14 0.447304 -3.04151
        -1.10719e-13 -0.133629 -4.4108
        -1.06054e-13 -0.133629 -4.4108
        -8.84812e-14 -0.133629 -4.4108
        1.48194e-13 -0.133629 -4.4108
        1.74456e-12 0.333158 -1.7348
        -5.06986e-13 0.390773 0.251293
        -1.6013e-10 0.333158 -1.7348
        -1.51769e-10 0.390773 0.251293
        -2.3204e-09 0.333158 -1.7348
        -7.93232e-10 0.390773 0.251293
        -1.52931e-14 0.601854 0.885301
        -3.76672e-11 0.601854 0.885301
        -7.31553e-10 0.601854 0.885301
        5.96267e-09 0.601854 0.885301
        2.60253e-13 -4.21088 -1.6225
        -7.66723e-12 -4.21088 -1.6225
        -2.98517e-10 -4.21088 -1.6225
        -6.01568e-11 -4.21088 -1.6225
        4.50939e-13 0.350188 -0.657381
        -3.52389e-11 0.350188 -0.657381
        -7.72625e-10 0.350188 -0.657381
        4.3527e-09 0.350188 -0.657381
        9.98636e-14 -0.359184 -2.72642
        -1.35175e-10 -0.359184 -2.72642
        -1.06461e-09 -0.359184 -2.72642
        -7.65196e-13 0.413729 0.109567
        -2.14879e-12 0.31679 0.120715
        -2.01021e-10 0.413729 0.109567
        -2.26987e-10 0.31679 0.120715
        -2.10678e-09 0.413729 0.109567
        -2.12852e-09 0.31679 0.120715
        6.2865e-13 0.462128 -1.5772
        -2.75852e-11 0.462128 -1.5772
        5.47579e-13 -1.19942 -1.26965
        -7.4795e-10 0.462128 -1.5772
        1.57177e-10 0.462128 -1.5772
        -5.4258e-11 -1.19942 -1.26965
        -3.7455e-10 -1.19942 -1.26965
        2.48727e-13 -2.02182 -0.214754
        -4.12266e-11 -2.02182 -0.214754
        -2.64341e-10 -2.02182 -0.214754
        1.5479e-13 0.275821 -0.242288
        -2.15325e-11 0.275821 -0.242288
        -4.31004e-10 0.275821 -0.242288
        3.28326e-09 0.275821 -0.242288
        1.49534e-13 -3.4772 1.23039
        -9.97529e-12 -3.4772 1.23039
        -1.54641e-10 -3.4772 1.23039
        3.27443e-09 -3.4772 1.23039
        -3.65255e-12 1.67712 3.17786
        -1.82214e-10 1.67712 3.17786
        -5.5894e-10 1.67712 3.17786
        -3.13234e-12 -0.513209 -3.10631
        -2.11784e-10 -0.513209 -3.10631
        -9.57463e-10 -0.513209 -3.10631
        5.24047e-13 0.325139 -2.8052
        -4.03943e-11 0.325139 -2.8052
        -8.77662e-10 0.325139 -2.8052
        9.97838e-09 0.325139 -2.8052
        -1.94684e-12 0.447304 -3.04151
        -2.77266e-10 0.447304 -3.04151
        -2.73326e-09 0.447304 -3.04151
        2.90806e-13 -0.133629 -4.4108
        -1.56967e-11 -0.133629 -4.4108
        -4.28228e-10 -0.133629 -4.4108
        2.754e-09 -0.133629 -4.4108
        5.89699e-08 0.390773 0.251293
        3.55217e-08 0.333158 -1.7348
        1.12945e-06 0.390772 0.251294
        1.4285e-06 0.333159 -1.7348
        -2.33997e-06 0.390773 0.251306
        1.37237e-05 0.333161 -1.7348
        -0.000347668 0.390994 0.251275
        -8.48264e-05 0.333011 -1.73458
        3.83103e-07 0.601854 0.885301
        4.63022e-06 0.601856 0.885294
        -9.99879e-06 0.60185 0.885261
        1.25585e-07 -4.21088 -1.6225
        2.24514e-06 -4.21088 -1.6225
        2.61319e-06 -4.21087 -1.62249
        3.89228e-07 0.350188 -0.65738
        5.25317e-06 0.350186 -0.657375
        -1.79009e-06 0.350217 -0.657344
        5.01411e-08 -0.359184 -2.72642
        1.35732e-06 -0.359183 -2.72642
        1.02679e-05 -0.359175 -2.72642
        -0.000138548 -0.359358 -2.72628
        5.86447e-08 0.31679 0.120715
        5.13926e-08 0.413729 0.109567
        1.67102e-06 0.316791 0.120713
        1.54824e-06 0.413728 0.109569
        1.16256e-05 0.413729 0.109588
        -0.000128536 0.413909 0.109552
        1.23086e-05 0.316794 0.120685
        2.89985e-07 0.462128 -1.57721
        -0.000122646 0.316723 0.120732
        2.088e-08 -1.19942 -1.26965
        4.6628e-06 0.46213 -1.57721
        4.51921e-06 0.462104 -1.57718
        3.90583e-07 -1.19942 -1.26965
        -2.82201e-06 -1.19942 -1.26964
        -0.000194732 -1.19933 -1.2697
        1.5574e-08 -2.02182 -0.214754
        3.05464e-07 -2.02182 -0.214754
        -8.19305e-07 -2.02182 -0.214753
        -0.00011525 -2.02175 -0.21468
        1.95038e-07 0.275821 -0.242288
        1.18957e-06 0.27582 -0.242284
        -4.59381e-05 0.275852 -0.242286
        1.32418e-07 -3.4772 1.23039
        1.1133e-06 -3.4772 1.23039
        -2.07931e-05 -3.4772 1.23039
        7.11959e-08 1.67712 3.17786
        1.37764e-06 1.67712 3.17786
        3.18395e-06 1.67713 3.17785
        -0.000232907 1.67702 3.17794
        7.70375e-08 -0.513209 -3.10631
        1.25079e-06 -0.513208 -3.10631
        -1.39372e-05 -0.513214 -3.10629
        -0.000722242 -0.513544 -3.10566
        5.36836e-07 0.325139 -2.8052
        4.17834e-06 0.32514 -2.8052
        -0.000112537 0.325091 -2.80507
        8.02267e-08 0.447304 -3.04151
        2.05623e-06 0.447305 -3.04152
        8.76503e-07 0.447301 -3.04151
        -0.00061445 0.447051 -3.04084
        2.2655e-07 -0.133629 -4.4108
        1.95281e-06 -0.133627 -4.4108
        -5.60971e-05 -0.133639 -4.41077
        -0.00560133 0.394445 0.24836
        -0.00349371 0.330451 -1.72937
        -0.0438757 0.418972 0.210827
        -0.0388093 0.311773 -1.67507
        -0.150673 0.472959 0.0124379
        -0.182388 0.279536 -1.40099
        -0.183311 0.385983 -0.336915
        -0.34633 0.299321 -0.931075
        -0.000889823 0.601509 0.886323
        -0.0109646 0.598363 0.908216
        -0.0620499 0.594673 1.08502
        -0.16374 0.636012 1.6394
        -0.000512588 -4.21101 -1.62259
        -0.00837436 -4.21483 -1.62489
        -0.0635829 -4.24948 -1.64181
        -0.207758 -4.3734 -1.67278
        -0.00100442 0.35093 -0.658098
        -0.0138539 0.355973 -0.673308
        -0.084889 0.356307 -0.789976
        -0.236383 0.269277 -1.14081
        -0.00375936 -0.363589 -2.72331
        -0.036326 -0.402883 -2.69411
        -0.158848 -0.560035 -2.54673
        -0.293286 -0.765975 -2.2166
        -0.00363467 0.416048 0.105554
        -0.03421 0.422147 0.0552674
        -0.139076 0.366551 -0.201332
        -0.00343757 0.315402 0.126872
        -0.0314656 0.30834 0.209769
        -0.000825234 0.461344 -1.57596
        -0.284477 0.231567 -0.636022
        -0.128754 0.320288 0.664029
        -0.0126395 0.453642 -1.55853
        -0.255729 0.374519 1.49814
        -0.00309597 -1.19852 -1.27127
        -0.0255061 -1.19505 -1.28878
        -0.0865978 0.422026 -1.43332
        -0.100216 -1.20237 -1.38266
        -0.243291 0.4116 -1.05527
        -0.117505 -1.33293 -1.57342
        -0.0019071 -2.02124 -0.213332
        -0.0155896 -2.02276 -0.200951
        -0.0600969 -2.05975 -0.145189
        -0.0881355 -2.19062 -0.064426
        -0.00115779 0.276623 -0.243153
        -0.0123517 0.284202 -0.257653
        -0.067627 0.316127 -0.365816
        -0.15405 0.312257 -0.686076
        -0.000715581 -3.47728 1.23037
        -0.00894221 -3.47933 1.22973
        -0.060617 -3.49904 1.22336
        -0.202638 -3.57877 1.19327
        -0.00400693 1.67508 3.18159
        -0.031363 1.66136 3.22452
        -0.122606 1.6248 3.43712
        -0.247059 1.54388 3.76097
        -0.0108653 -0.518789 -3.09703
        -0.0849594 -0.562089 -3.03452
        -0.305963 -0.731223 -2.83313
        -0.367877 -0.942636 -2.66687
        -0.003179 0.323846 -2.8021
        -0.0365845 0.310157 -2.77043
        -0.209986 0.236778 -2.59921
        -0.450998 0.127672 -2.25352
        -0.0113541 0.443147 -3.03014
        -0.100247 0.412272 -2.94261
        -0.392734 0.315403 -2.62209
        -0.482494 0.313947 -2.2755
        -0.00166053 -0.134245 -4.40982
        -0.0202287 -0.143141 -4.3992
        -0.12777 -0.208124 -4.33861
        -0.319827 -0.409582 -4.2146
        -0.159962 0.287734 -0.584131
        0.795467 -0.127086 -1.37495
        -0.392481 0.228112 -0.741887
        3.14888 0.384539 -0.573918
        0.00881804 1.15485 -1.16427
        3.58217 1.20352 -2.09981
        -0.265771 0.602017 2.16598
        -0.310101 0.390323 2.70847
        2.36819 2.50843 -0.854279
        -0.259233 -4.47195 -1.60154
        -0.191843 -4.48585 -1.50936
        0.445981 -3.24672 -2.74579
        -0.402081 0.287998 -1.45581
        -0.78748 0.501992 -1.73447
        1.83627 -1.6071 0.142396
        -0.301446 -0.881771 -2.04324
        0.211267 -0.643836 -2.98
        3.55653 1.89171 -2.32266
        -0.444093 0.315333 -0.809632
        -0.381314 0.250539 1.9571
        -0.602147 -0.0567318 -1.4984
        -0.315246 0.363133 -0.734063
        -0.0251116 -1.58533 -1.73032
        -0.947795 -0.128385 -0.226572
        -0.93553 0.163868 3.85453
        3.67448 -2.13914 -0.961955
        0.360888 -1.99528 -2.21892
        2.58336 1.50324 1.70443
        0.832204 0.53621 -3.9082
        0.771766 0.114628 -2.65458
        -0.167163 -2.29742 -0.0679906
        -0.709995 -2.16328 -0.0682728
        3.58891 -1.64511 -2.13061
        -0.182988 0.168103 -0.976778
        -0.141719 0.121249 -1.29882
        1.83615 0.500009 -2.10468
        -0.30594 -3.71231 1.13464
        -0.364744 -3.86995 1.05496
        0.40315 -3.16234 1.61948
        -0.380469 1.33583 3.86052
        -0.928126 1.19801 4.81864
        2.73372 1.66011 1.42772
        -0.241305 -1.06726 -2.60823
        1.00001 -0.596681 -3.73372
        0.629273 0.111567 -4.64238
        -0.314776 0.184721 -2.07348
        0.328875 0.469855 -2.43827
        0.965501 -0.112964 -3.26416
        -0.261346 0.341445 -2.15718
        0.746622 0.140248 -3.44658
        0.530638 0.464158 -4.27148
        -0.236811 -0.565862 -4.19277
        -0.0444077 -0.405888 -4.36328
        0.440486 0.0549434 -4.83496
        -3.20137 0.400718 -0.544718
        -0.954697 -0.231723 -1.16182
        0.143458 0.229291 -0.42851
        -3.3728 1.08983 -2.05727
        -0.470649 0.174891 -3.84876
        0.184004 0.979489 -1.37482
        0.426851 0.237916 -1.03346
        0.90326 -0.370661 -1.14282
        0.403402 -0.026562 -1.67754
        -2.11563 0.42055 -1.5593
        0.199807 -0.114717 0.0615822
        0.324626 -0.0563636 0.365917
        -2.3014 1.43302 1.84827
        -3.45534 -2.81662 -1.42127
        1.06175 -0.23242 2.96652
        0.849025 -0.0501184 -0.836619
        0.470704 -0.0390796 0.450135
        0.518316 0.132369 -0.0968267
        -2.40369 1.45109 1.80082
        0.445947 0.0761434 -3.00575