<?xml version="1.0" encoding="UTF-8" standalone="no" ?>
<VTKFile byte_order="LittleEndian" type="UnstructuredGrid" version="0.1">
  <UnstructuredGrid>
    <Piece NumberOfCells="0" NumberOfPoints="15094">
      <PointData>
        <DataArray Name="velocities" NumberOfComponents="3" format="ascii" type="Float32">
        0.75721 -3.43882 1.61828
        -0.125769 -6.75115 -2.97756
        -0.0379355 1.93469 -3.2534
        -3.04897 5.31655 2.74809
        -0.222951 1.05067 2.54416
        3.75513 -4.56448 -0.175795
        2.89565 -1.44377 -2.17373
        -6.6671 3.04604 4.41363
        -2.90308 1.90465 2.48305
        0.299889 -2.27392 -0.12915
        -1.24791 1.47514 2.64961
        -1.80879 -0.749143 0.682083
        6.05536 -3.18366 9.41337
        -1.33413 0.400419 4.43437
        3.13791 4.85432 2.04785
        -6.07861 2.1238 -2.73697
        -5.78079 3.47841 2.91077
        0.297084 -2.90525 -1.43743
        7.7605 -4.80168 0.138126
        1.93212 -1.15071 3.37393
        3.3028 -1.96758 11.9567
        2.56648 2.46332 -0.764717
        -0.392871 -5.90297 4.70329
        -2.89763 -0.720007 -3.02138
        7.62726 0.369299 1.43212
        -1.12157 3.56057 0.33216
        6.7379 0.345713 9.43904
        -4.88241 2.8992 -1.56467
        4.78651 -5.20811 -4.80206
        -1.42354 -2.95038 1.52128
        2.85086 -2.10364 4.24748
        0.645837 -0.756037 -0.87351
        -0.689448 -1.33932 -2.82284
        4.41346 -1.3636 2.20599
        -7.34237 -3.45389 5.17674
        3.91091 0.137002 -1.91559
        -2.27371 3.22036 -2.5739
        0.152493 -1.70964 2.81632
        -1.89196 -0.194248 1.02104
        -4.59304 1.47848 -5.19065
        3.74883 0.383647 1.65173
        -0.466693 1.72335 -0.286656
        -1.20055 -7.20789 2.14851
        -5.10357 1.8182 3.14574
        0.32462 5.53507 0.653044
        -3.18022 0.366334 -4.77012
        2.25285 0.20001 2.73699
        0.316984 0.808784 2.75391
        0.445706 4.69521 3.60783
        -0.716485 -2.64032 3.86924
        4.20436 -2.32816 8.76788
        -1.55227 0.098794 -3.96157
        3.77207 1.17682 -1.37678
        -5.06718 -2.45998 3.26273
        0.691774 4.17354 -2.50954
        -0.272779 -0.951926 -2.65892
        4.65497 6.2494 3.07834
        0.00231622 -3.88769 -3.84587
        -3.09175 1.42217 0.394138
        -6.40059 -3.27409 3.41778
        1.94645 0.51657 -0.977194
        -4.68978 1.89818 10.7436
        -2.29688 1.45201 2.06052
        -2.06114 -2.71815 2.56434
        0.861751 6.29864 -0.605059
        0.124342 -1.44868 1.6725
        1.27333 -2.74944 4.21529
        -3.31832 5.10173 1.51192
        5.39322 1.40477 3.21681
        -5.27816 -1.55553 -2.17199
        -0.587672 1.04246 1.10574
        -3.86369 -1.75022 -4.65463
        2.55327 6.37389 1.11705
        0.550155 -5.04532 -0.896541
        -4.16273 -6.92724 -0.101318
        -0.401557 5.71578 5.93627
        -3.2445 -0.510028 -0.941728
        5.65721 8.64203 -0.71775
        -1.28961 -5.70189 3.48138
        1.95715 -1.73384 -4.07185
        -0.0784405 0.0144234 3.41169
        -2.60201 -5.48075 1.83444
        6.0687 -4.23212 2.18261
        3.11962 1.20587 0.136829
        2.38023 5.32256 1.18415
        -4.428 4.78296 -1.84327
        -1.07421 -3.45268 0.154302
        0.126952 -0.00391583 -2.16724
        1.02185 -3.64152 -4.32121
        -7.93071 -2.71617 3.26528
        -4.78551 -0.116942 -2.59061
        1.11759 -2.99757 0.739672
        -0.91751 1.5381 1.26883
        4.01623 -4.33122 6.86752
        5.96847 -0.151157 -0.0969524
        1.82223 -1.18548 3.27212
        -1.20949 -2.04702 -2.09283
        4.45908 -3.42472 0.520652
        -0.0711981 0.229109 2.12792
        -1.33801 -0.643183 -1.02735
        1.25119 -0.584079 1.87135
        -0.512044 3.7723 1.09719
        -0.434636 1.34573 0.983748
        -4.04419 3.1146 0.403861
        -1.0083 3.15532 2.69357
        3.50964 -2.29789 3.81965
        -2.37102 0.84739 -0.709404
        -2.57393 2.70311 -1.38908
        -3.80522 0.177763 0.550658
        0.0730085 -3.92976 3.50383
        2.12208 4.2976 3.71653
        -2.4317 -0.573605 -4.78833
        0.693802 -2.08966 -0.416306
        0.185944 -0.293674 2.44112
        4.93928 2.50915 -1.98445
        1.2697 0.625152 2.99888
        2.332 0.0852208 -0.0466137
        1.31752 4.57186 0.453322
        1.39577 -0.0633211 3.13629
        -2.18592 1.25374 0.433001
        1.40113 -3.01138 7.57677
        5.46387 2.13086 3.10322
        4.15959 1.32718 1.71208
        -3.68417 -2.51443 -2.00153
        3.54935 -2.49585 3.01399
        0.597828 -0.95305 1.09593
        2.00156 2.27057 -3.03892
        -1.18576 4.60902 3.32414
        -1.46293 2.53684 2.18736
        -2.24363 1.41466 4.16407
        5.87755 -1.4844 3.19267
        4.13277 5.35442 -0.0159272
        -0.39057 -4.8633 0.880968
        2.05035 -2.27758 5.41459
        -5.33214 -3.37078 1.01825
        0.233009 -0.33153 -2.76898
        2.32728 -3.17303 -0.628745
        6.87075 -5.93047 -1.49399
        -1.14059 -5.38565 -1.21832
        -6.83114 -0.313462 0.641952
        0.395239 2.73792 -0.948536
        -0.646626 -0.987682 4.82708
        -2.9394 0.921321 -1.58906
        -2.74768 4.95433 0.689601
        2.97663 0.527674 2.41568
        -3.19374 0.0924241 5.10714
        3.04726 2.59872 1.581
        1.74022 4.05497 3.14179
        -1.10852 -1.37606 3.54692
        -0.0201309 -0.42199 1.34367
        -3.5434 -1.8128 1.05788
        0.434017 -1.92019 2.87258
        6.67275 -1.7176 -0.837227
        -2.12059 1.4046 5.45711
        -4.0675 0.844921 -2.05288
        3.79327 1.79519 -3.69013
        -0.0106197 -4.98014 3.03943
        -1.31077 -1.4719 3.17578
        1.76502 3.53235 8.2425
        1.45851 -1.67296 3.9121
        -0.062024 -2.97295 6.5478
        1.35887 3.19838 1.81797
        1.91781 0.202846 1.92073
        -0.935453 3.39311 3.00005
        1.49895 -1.10089 0.409814
        -2.61824 -1.81682 1.21546
        -6.60682 1.41524 4.34456
        0.1933 -2.1232 2.31061
        -4.16691 5.32689 2.45078
        -5.43797 -1.03673 0.826463
        2.03557 -0.392661 3.9352
        -1.44402 -1.23066 -0.835937
        -2.66296 -1.35491 1.71829
        -1.85141 -1.40352 2.3031
        0.618648 0.0353517 2.59403
        4.54561 -4.06268 -0.166721
        3.28583 -0.261569 0.107055
        -3.92003 0.12861 2.46307
        1.08354 1.0857 2.49965
        -1.11168 -2.38181 -2.05509
        0.40955 -0.0366508 -0.131373
        2.38506 -5.05371 1.72908
        1.91308 2.0389 -3.26061
        -3.97096 5.19796 9.11208
        -1.94918 -0.266975 -1.70395
        0.630367 0.907706 2.76867
        -2.43089 -2.68272 2.3897
        -3.29761 -0.322649 4.00292
        5.42806 2.94181 0.175967
        0.903147 1.38792 2.13219
        0.227722 0.151802 0.139244
        1.0963 -2.50516 -1.54897
        1.07644 -1.33619 2.95197
        -4.16609 -1.04623 -3.74536
        3.1005 -2.16574 -3.66392
        1.41385 -1.61179 -3.31408
        -1.98612 0.298527 0.736832
        -1.07063 -0.745771 -1.71148
        -1.76171 -1.7897 -3.23697
        -1.27999 -2.21266 -3.53313
        -0.801293 1.33169 5.89894
        -0.202475 -2.06568 5.6644
        3.83304 2.25551 3.35254
        2.25131 3.23292 -0.320027
        -0.531754 1.11639 5.9969
        2.9929 0.0333679 0.00973494
        0.72901 0.963518 3.42128
        -0.607711 -0.139919 4.89165
        -3.26374 1.77501 2.75189
        0.992683 -2.25136 0.95918
        -0.690214 -3.99032 2.79734
        -1.05461 -4.38599 1.97239
        2.87235 -3.30759 1.82501
        -0.458557 1.56519 2.17968
        6.30166 -3.75321 0.495808
        1.44497 -7.35201 2.19532
        0.318403 5.56233 1.65227
        4.45452 0.934145 0.81973
        -0.678192 3.18836 0.110171
        -0.138091 2.41048 0.0193657
        4.32183 2.00689 1.02767
        3.26844 1.94771 1.68409
        1.32569 1.52248 1.88144
        0.855121 1.28229 0.82577
        -4.60625 -4.4461 2.26762
        -0.686596 -0.713855 5.4612
        4.56195 -4.42476 2.08399
        -0.672165 -4.26784 4.70711
        -0.970809 3.36073 1.22074
        -3.5 5.41433 6.68819
        1.28055 4.80466 -0.561494
        0.574247 6.72622 -0.295756
        -4.36291 4.7214 -0.609057
        0.477452 -0.721351 -3.31628
        -1.82861 -0.70785 -1.62464
        0.120486 -1.16426 -0.690507
        1.57423 2.99092 3.39037
        3.64011 -1.82872 3.73025
        4.12239 -4.66906 3.39151
        0.599926 -2.5258 3.64933
        -0.69788 4.81853 2.22114
        1.88251 1.54923 0.289839
        -3.53451 5.11885 1.35063
        1.69163 2.92022 -4.72899
        1.24469 0.311817 -5.30613
        -0.81736 1.20978 6.06861
        -0.54378 -0.906889 -3.90475
        0.308436 0.878158 -3.43253
        -0.498256 2.89792 9.76683
        0.726916 6.12037 6.94941
        0.233395 4.60822 7.09067
        -0.207078 4.84955 8.63324
        -0.323579 1.22454 1.8856
        1.40644 -0.165424 2.92342
        1.88212 -0.711121 5.04359
        0.274082 -0.716573 2.43891
        3.26227 0.063444 0.276201
        -0.142844 -2.08349 -1.4433
        -0.304864 -2.80105 -3.20559
        -0.252325 -2.64035 -2.46178
        -2.65433 1.80293 0.160482
        4.42926 -1.28285 -3.54458
        -1.33383 -4.60045 6.21931
        0.185467 -2.78149 5.05487
        2.03424 6.22079 5.46422
        0.520099 5.26284 2.62801
        -0.00746972 6.11668 3.35885
        -0.0332043 6.58687 4.44107
        -2.95677 2.61725 1.74198
        2.41692 1.99126 2.42502
        2.94243 0.139712 2.35247
        0.534662 -0.332643 3.48711
        -1.77589 -1.5873 -1.33927
        2.43588 1.23589 0.687653
        -0.947837 -1.00207 3.14976
        0.369594 -0.411792 2.99307
        0.963445 2.44294 4.97757
        1.78719 -0.863631 -2.16521
        -0.297895 -2.8238 3.39204
        -0.155734 -2.7824 3.54122
        0.474379 -2.18274 -0.466571
        -3.49023 1.22706 4.01591
        0.0301081 2.5638 7.65789
        0.546181 2.23251 7.33407
        -0.0734792 -0.106961 -0.0421236
        0.200988 -2.93521 4.20593
        1.81484 1.03006 -1.92758
        2.22324 1.13886 -3.83846
        0.0579379 0.730504 -3.54446
        0.0346399 0.575429 -3.6075
        0.00341525 0.591203 -3.61211
        -0.0285483 6.78793 -0.640361
        -0.0325844 0.127958 -4.24899
        0.0475893 0.294593 -4.38077
        -0.00241554 0.375717 -4.43428
        -0.00698532 0.376883 -4.43195
        -0.628888 -2.40002 -3.28444
        -0.00780838 -2.98818 -3.32383
        0.0245659 -3.05947 -3.32507
        0.000323842 -3.04816 -3.31897
        0.902729 0.598842 -0.836525
        0.0188314 0.241385 -1.24982
        -0.0698589 0.170347 -1.05464
        -0.0296506 0.154348 -0.938915
        0.191443 -0.247978 5.52653
        0.135854 -0.114974 5.2946
        0.0461703 -0.133403 5.1557
        0.0125684 -0.178667 5.11515
        -0.60852 -4.81205 1.57417
        -0.247152 -5.07521 1.89116
        -0.0328668 -5.27577 2.02663
        -0.336491 -6.24232 5.33418
        0.0862633 -6.75268 4.78264
        0.0350791 -7.28137 4.41661
        0.0153027 -7.35577 4.30741
        -0.23238 2.53154 -0.387126
        -0.254289 2.74113 -0.359948
        -0.08212 2.78652 -0.231204
        -0.0137251 2.77271 -0.223539
        -0.0118338 0.407678 1.12629
        0.0213273 0.31453 1.1197
        0.023892 0.286628 1.06873
        -0.512782 -4.72821 3.08103
        -0.212799 -4.64446 2.55353
        -0.0449081 -4.6223 2.44018
        -0.282028 6.69647 -0.650288
        -0.168895 6.76478 -0.718196
        0.215003 -1.42168 0.176533
        -0.0928421 -1.44916 0.571127
        -0.0360227 -1.44066 0.763008
        -0.00226979 -1.42372 0.795992
        -0.182004 -2.45506 4.03394
        -0.22361 -2.53496 4.07153
        -0.0636295 -2.57721 4.08438
        0.250513 2.50752 -4.16263
        -0.0500646 2.87364 -3.46797
        0.0264464 3.12801 -3.20906
        0.00742263 3.17721 -3.15022
        0.015698 4.5989 8.35688
        -0.00861558 4.51949 8.26538
        -0.00521276 4.47545 8.27496
        -0.314515 -1.16211 1.82651
        -0.307964 -1.37174 2.06475
        -0.109623 -1.42451 2.28765
        -0.021702 -1.44002 2.35454
        -0.113648 -2.25706 -2.13971
        -0.0216789 -2.1643 -2.14524
        -0.00203561 -2.12346 -2.17329
        0.194039 -0.442678 4.97161
        0.0405877 -0.105919 5.02661
        -0.0118079 0.0405238 4.95123
        -0.00392983 0.0561812 4.91415
        0.0876697 6.42566 4.93647
        -0.102485 6.46012 4.94689
        -0.0570242 6.50051 5.0287
        0.222122 -0.426821 3.26741
        0.0261006 -0.59141 3.21883
        -0.0342392 -0.637316 3.248
        -0.0115985 -0.629 3.28724
        0.176422 -1.91011 3.22467
        -0.0133108 -2.32042 3.26379
        -0.0220656 -2.40085 3.304
        -0.00890156 -2.41277 3.33598
        -0.262295 1.76008 5.9084
        -0.0538583 1.73488 5.95748
        -0.168936 1.71023 5.94909
        0.111098 1.44787 7.43114
        -0.0716279 1.26087 7.22536
        -0.0716898 1.2202 7.13127
        -0.0169397 1.21865 7.1552
        0.036875 -2.81661 3.72451
        0.0218552 -2.95326 3.63389
        -0.0245177 -3.00332 3.57165
        -0.0844541 5.69489 1.66978
        -0.0819062 5.56772 1.70273
        -0.0107954 5.50808 1.79414
        0.00131256 5.50459 1.82956
        0.00118185 0.608766 -3.61209
        0.000344059 0.611407 -3.61237
        6.92719e-05 0.611623 -3.61239
        8.34566e-06 0.611636 -3.6124
        -0.000372897 -4.61394 2.45596
        -2.19411e-05 -4.6135 2.45716
        -7.11248e-06 -4.61344 2.45729
        -0.00531092 6.79034 -0.615606
        -0.000816164 6.79096 -0.609366
        -0.000134328 6.79105 -0.608269
        -1.38029e-05 6.79107 -0.608093
        -0.00113995 -3.04784 -3.31872
        -0.00601919 0.161822 -0.912388
        -0.00029805 -3.04867 -3.31889
        -0.000731849 0.16339 -0.907135
        -0.00131307 0.369712 -4.42622
        -7.15095e-05 0.163551 -0.906566
        -3.70755e-05 -3.04889 -3.31894
        -0.000199679 0.368384 -4.4252
        -5.68981e-06 0.163551 -0.906502
        -1.93561e-05 0.368187 -4.42503
        -1.29902e-06 -3.04892 -3.31895
        0.00190274 -0.188651 5.10733
        0.000819641 -5.31018 2.03639
        0.000688882 -5.3103 2.03506
        -2.98702e-06 0.368166 -4.42501
        0.00028253 -0.189906 5.1062
        0.000155758 -5.30978 2.03494
        2.08821e-05 -5.30964 2.03491
        2.7493e-05 -0.190043 5.10606
        4.00781e-06 -0.190065 5.10605
        0.00450729 -7.36947 4.2905
        0.000558133 -7.37187 4.2906
        5.16469e-05 -7.37227 4.29061
        6.56897e-06 -7.37231 4.29062
        -0.00151537 2.76707 -0.225634
        -0.000133193 2.76627 -0.226012
        -1.29917e-05 2.76617 -0.226057
        -1.27388e-06 2.76616 -0.226058
        0.00276611 0.284088 1.05567
        -0.000135942 0.28869 1.05361
        -8.80618e-05 0.28986 1.05312
        -1.30151e-05 0.290049 1.05305
        -0.0033312 -4.61754 2.4457
        -0.000121789 -1.41875 0.797713
        -1.22793e-05 -1.41815 0.797835
        -8.87113e-06 -1.41805 0.797845
        3.0639e-07 -1.41804 0.797844
        -0.010903 -2.58568 4.09312
        -0.0013153 -2.58698 4.09454
        -0.00014071 -2.58723 4.09473
        -9.14024e-06 -2.58728 4.09474
        0.00113204 3.18291 -3.12981
        0.000113732 3.18361 -3.12609
        2.43813e-05 3.18373 -3.12548
        -4.47561e-06 3.18375 -3.12541
        -0.000843319 4.46822 8.27839
        -3.83514e-05 4.46821 8.27792
        4.95509e-06 4.46832 8.27789
        1.41603e-06 4.46833 8.27789
        -0.00249017 -1.44789 2.36597
        -0.000218952 -1.44903 2.36714
        -1.61915e-05 -1.44914 2.36725
        -6.50838e-07 -1.44914 2.36727
        -0.000258556 -2.11635 -2.17832
        0.000129365 -2.11627 -2.17837
        2.64222e-05 -2.11628 -2.17823
        4.9204e-06 -2.11628 -2.1782
        8.21745e-05 0.0465715 4.91359
        0.000112949 0.0453342 4.91411
        2.56816e-05 0.0451851 4.91427
        2.53742e-06 0.0451884 4.91429
        -0.0106766 6.50792 5.06576
        -0.00184784 6.50832 5.07287
        -0.000200693 6.50844 5.0743
        -2.32645e-05 6.50846 5.07447
        -0.00151728 -0.625407 3.29796
        -0.000162947 -0.62488 3.29925
        -7.51466e-06 -0.624825 3.29938
        -6.7966e-07 -0.624823 3.29938
        -0.00219403 -2.40678 3.34317
        -0.000323669 -2.40492 3.34459
        -3.72971e-05 -2.40459 3.34474
        -3.23055e-06 -2.40456 3.34476
        -0.00892288 1.77286 5.9565
        -6.85656e-06 1.7809 5.9551
        -0.000114774 1.78082 5.9551
        -0.00115332 1.77984 5.95526
        -0.00106849 1.22047 7.16503
        -7.38664e-06 1.22054 7.16532
        1.93949e-05 1.22054 7.16528
        1.41213e-06 1.22054 7.16526
        -0.0102287 -2.99657 3.58877
        -0.00119639 -2.99164 3.59898
        -0.000100723 -2.99107 3.60021
        1.22768e-06 -2.99102 3.60032
        0.000579282 5.50646 1.83676
        9.73969e-05 5.50691 1.83759
        1.18943e-05 5.50698 1.83767
        1.00094e-06 5.50699 1.83767
        4.79354e-10 2.76616 -0.226059
        8.21275e-07 0.611632 -3.6124
        -2.01463e-08 0.611632 -3.6124
        2.99504e-09 0.611632 -3.6124
        4.27165e-10 0.611632 -3.6124
        5.59179e-07 -4.61344 2.4573
        -5.03713e-07 -4.61344 2.4573
        4.25409e-08 -4.61344 2.4573
        -1.32715e-10 -4.61344 2.4573
        -3.80171e-06 6.79107 -0.608077
        3.25201e-07 6.79107 -0.608074
        -8.53353e-09 6.79107 -0.608074
        -8.2497e-10 6.79107 -0.608074
        -1.12663e-07 0.163555 -0.906503
        1.63193e-07 0.163554 -0.906501
        -1.9033e-08 0.163554 -0.906502
        1.02213e-08 -3.04892 -3.31895
        -2.12386e-08 -3.04892 -3.31895
        5.68184e-07 0.368163 -4.425
        -2.89429e-09 -3.04892 -3.31895
        -4.42303e-07 -0.190068 5.10605
        -6.7987e-08 0.368164 -4.42501
        3.77914e-06 -5.30962 2.03491
        -1.11105e-09 0.368164 -4.425
        6.0769e-08 -0.190067 5.10605
        1.12183e-07 -5.30962 2.03491
        -3.16599e-10 -0.190067 5.10605
        2.02123e-08 -5.30962 2.03491
        -5.80842e-11 -5.30962 2.03491
        6.06476e-07 -7.37232 4.29061
        -3.35556e-07 -7.37232 4.29061
        2.46841e-08 -7.37232 4.29061
        -1.13473e-08 2.76616 -0.226059
        8.73037e-09 2.76616 -0.226059
        -3.594e-06 0.290067 1.05304
        8.20249e-08 0.29007 1.05304
        6.05708e-08 0.29007 1.05304
        -3.42568e-09 0.29007 1.05304
        -2.32504e-07 -1.41804 0.797843
        3.50557e-08 -1.41804 0.797844
        7.05124e-11 -1.41804 0.797844
        -1.10068e-06 -2.58729 4.09474
        7.81213e-08 -2.58729 4.09474
        -1.818e-08 -2.58729 4.09474
        -1.39327e-10 -2.58729 4.09474
        -9.70589e-08 3.18375 -3.1254
        1.21027e-07 3.18375 -3.1254
        -2.94397e-09 3.18375 -3.1254
        3.87779e-07 4.46833 8.27789
        7.02497e-09 4.46833 8.27789
        -4.20722e-09 4.46833 8.27789
        1.21311e-10 4.46833 8.27789
        1.27958e-07 -1.44914 2.36727
        -1.28479e-07 -1.44914 2.36727
        5.41259e-09 -1.44914 2.36727
        1.61279e-07 -2.11628 -2.1782
        1.72963e-07 -2.11628 -2.1782
        -2.43103e-08 -2.11628 -2.1782
        6.78364e-10 -2.11628 -2.1782
        3.63885e-07 0.0451831 4.9143
        -3.42931e-08 0.0451846 4.91429
        -3.36657e-09 0.0451845 4.91429
        1.32717e-06 6.50847 5.07449
        -8.4302e-07 6.50847 5.07449
        7.85147e-08 6.50847 5.07449
        -2.47195e-09 6.50847 5.07449
        -9.2461e-08 -0.624822 3.29938
        -5.93719e-08 -0.624822 3.29938
        3.56359e-09 -0.624822 3.29938
        -3.80315e-07 -2.40455 3.34476
        1.03067e-07 -2.40455 3.34476
        -5.42644e-09 -2.40455 3.34476
        9.97506e-07 1.78091 5.9551
        3.42723e-10 1.78091 5.9551
        2.37986e-08 1.78091 5.9551
        -7.46883e-07 1.78091 5.9551
        2.97286e-07 1.22054 7.16525
        -1.86372e-07 1.22054 7.16525
        1.16082e-08 1.22054 7.16525
        3.00516e-08 -2.99102 3.60031
        4.68166e-07 -2.99102 3.60031
        -9.93255e-08 -2.99102 3.60031
        3.85453e-09 -2.99102 3.60031
        4.74997e-08 5.50699 1.83767
        -7.08121e-09 5.50699 1.83767
        -1.74831e-10 5.50699 1.83767
        1.73424e-11 2.76616 -0.226059
        -3.11757e-10 2.76616 -0.226059
        3.45661e-09 2.76616 -0.226059
        1.37891e-07 2.76616 -0.226059
        -1.45372e-09 -1.41804 0.797844
        -4.40298e-08 -1.41804 0.797844
        3.71922e-07 -1.41804 0.797843
        -7.64727e-10 0.611632 -3.6124
        -1.34048e-08 0.611632 -3.6124
        -1.59769e-07 0.611632 -3.6124
        8.85652e-10 -4.61344 2.4573
        -4.08183e-08 -4.61344 2.4573
        4.97149e-07 -4.61344 2.4573
        2.18737e-09 6.79107 -0.608074
        4.20039e-08 6.79107 -0.608074
        1.40453e-07 6.79107 -0.608075
        1.32114e-10 0.163554 -0.906502
        2.70374e-08 0.163554 -0.906502
        -2.91325e-08 0.163554 -0.906501
        1.44457e-06 0.163555 -0.906504
        1.11617e-10 -3.04892 -3.31895
        5.98965e-09 -3.04892 -3.31895
        4.97371e-08 -3.04892 -3.31895
        6.76575e-07 -3.04892 -3.31895
        -3.62184e-11 0.368164 -4.425
        4.95701e-12 -0.190067 5.10605
        -8.77886e-10 -0.190067 5.10605
        1.26187e-09 0.368164 -4.425
        -1.08843e-07 -0.190067 5.10605
        9.19513e-08 0.368164 -4.42501
        -3.05878e-07 -0.190067 5.10605
        -1.2342e-07 0.368164 -4.425
        -2.92717e-09 -5.30962 2.03491
        -7.67688e-08 -5.30962 2.03491
        -6.84038e-07 -5.30962 2.03491
        -1.00812e-10 -7.37232 4.29061
        -3.24748e-08 -7.37232 4.29061
        2.28584e-07 -7.37232 4.29061
        -1.47147e-06 -7.37232 4.29061
        6.14469e-09 0.29007 1.05304
        -2.19999e-08 0.29007 1.05304
        2.48806e-07 0.29007 1.05304
        -1.01752e-10 -1.41804 0.797844
        4.00619e-10 -2.58729 4.09474
        3.21524e-08 -2.58729 4.09474
        2.07601e-07 -2.58729 4.09474
        -1.15969e-10 3.18375 -3.1254
        1.95774e-09 3.18375 -3.1254
        -1.35211e-07 3.18375 -3.1254
        2.70222e-08 3.18375 -3.1254
        -9.01217e-07 0.0451833 4.91429
        -3.70148e-10 4.46833 8.27789
        5.50698e-10 4.46833 8.27789
        -4.9627e-08 4.46833 8.27789
        2.01289e-10 -1.44914 2.36727
        -3.53018e-09 -1.44914 2.36727
        1.56009e-07 -1.44914 2.36727
        1.05636e-07 -1.44914 2.36727
        -1.3901e-09 -2.11628 -2.1782
        1.65972e-08 -2.11628 -2.1782
        -2.52223e-07 -2.11628 -2.1782
        -2.52238e-10 0.0451845 4.91429
        -1.20689e-09 0.0451845 4.91429
        -1.60834e-08 0.0451846 4.91429
        4.18531e-09 6.50847 5.07449
        -5.89399e-08 6.50847 5.07449
        1.10528e-06 6.50847 5.07449
        2.49314e-11 -0.624822 3.29938
        -3.48136e-09 -0.624822 3.29938
        7.15014e-08 -0.624822 3.29938
        2.90156e-07 -0.624822 3.29938
        1.18366e-10 -2.40455 3.34476
        9.63442e-09 -2.40455 3.34476
        -4.16076e-08 -2.40455 3.34476
        1.03824e-06 -2.40455 3.34476
        1.04553e-09 1.78091 5.9551
        9.26047e-07 1.78091 5.9551
        -5.4325e-09 1.78091 5.9551
        -4.58331e-11 1.22054 7.16525
        -1.49557e-08 1.22054 7.16525
        1.46469e-07 1.22054 7.16525
        -5.57019e-07 1.22054 7.16525
        -5.71047e-09 -2.99102 3.60031
        8.48792e-08 -2.99102 3.60031
        -4.98865e-07 -2.99102 3.60031
        -9.17401e-12 5.50699 1.83767
        6.88208e-11 5.50699 1.83767
        4.04784e-09 5.50699 1.83767
        -3.40176e-07 5.50699 1.83767
        3.31727e-06 2.76617 -0.226057
        3.79336e-05 2.76619 -0.226044
        0.000459351 2.76648 -0.225914
        1.68694e-06 -1.41804 0.797843
        1.11948e-05 -1.41808 0.797844
        0.00473497 2.76872 -0.224909
        3.78615e-05 -1.41832 0.797803
        0.000493179 -1.42008 0.797434
        -2.86299e-06 0.611632 -3.6124
        -2.45665e-05 0.611635 -3.61239
        -0.000155135 0.611573 -3.61238
        8.65519e-07 -4.61344 2.4573
        -0.000675902 0.610741 -3.6123
        9.6374e-06 -4.61346 2.45726
        9.95734e-05 -4.61361 2.45687
        0.000992513 -4.61501 2.45289
        7.66021e-06 6.79107 -0.608082
        4.69666e-05 6.79106 -0.608137
        0.000328799 6.79102 -0.608581
        2.17477e-05 0.163551 -0.906516
        0.00216985 6.79077 -0.611296
        0.000234974 0.163516 -0.906702
        0.00221225 0.162992 -0.908555
        0.0145788 0.158849 -0.921054
        9.87063e-06 -3.04891 -3.31895
        0.000102046 -3.04883 -3.31893
        6.66034e-06 0.36817 -4.42501
        -1.06985e-05 -0.19006 5.10605
        0.000643503 -3.04835 -3.31882
        -9.19112e-05 -0.190006 5.1061
        6.64773e-05 0.368237 -4.42507
        -0.000716908 -0.18959 5.10648
        -0.00506258 -0.185965 5.10954
        0.00142186 -3.04741 -3.31865
        0.000505713 0.368747 -4.42549
        -7.86411e-06 -5.30963 2.03491
        0.00318927 0.372018 -4.42802
        -6.05421e-05 -5.30968 2.03492
        -0.000348526 -5.30998 2.03498
        -0.00113897 -5.3107 2.03545
        -1.95976e-05 -7.3723 4.29061
        -0.000174368 -7.37217 4.29061
        -0.00171776 -7.37119 4.29046
        -0.00978648 -7.36512 4.29309
        6.75763e-06 0.290062 1.05304
        3.77339e-05 0.289998 1.05307
        0.000154084 0.289506 1.05327
        -0.000305438 0.286883 1.05433
        3.89785e-06 -2.58728 4.09474
        3.93089e-05 -2.58726 4.09474
        0.000434114 -2.58715 4.09468
        0.00392971 -2.58661 4.09416
        1.42364e-06 3.18375 -3.12543
        -5.00572e-05 3.1837 -3.12564
        -0.000391496 3.1834 -3.12716
        -0.00274498 3.18157 -3.13607
        -8.79514e-06 0.0451876 4.91428
        -5.74214e-05 0.0452184 4.91423
        -0.000186654 0.045642 4.91391
        0.000821616 0.0496666 4.91315
        -7.8371e-07 4.46833 8.27789
        -3.91496e-06 4.46833 8.27789
        -8.95725e-07 4.46828 8.2779
        0.000225881 4.46814 8.27805
        3.20031e-06 -1.44914 2.36727
        6.42552e-05 -1.44912 2.36722
        0.000753972 -1.44876 2.36686
        0.00764497 -1.44554 2.3631
        -1.21764e-06 -2.11628 -2.1782
        -1.10121e-05 -2.11628 -2.17821
        -6.7036e-05 -2.11628 -2.17828
        -0.000112664 -2.11624 -2.17845
        0.000112827 -2.40468 3.34471
        0.000886276 -2.4055 3.34421
        0.00478111 -2.40947 3.34091
        2.86832e-06 6.50847 5.07449
        6.58818e-05 6.50846 5.07443
        0.000649049 6.50841 5.0739
        0.00453135 6.50817 5.07063
        1.4784e-06 -0.624823 3.29938
        4.20776e-05 -0.624839 3.29935
        0.000504708 -0.625017 3.29894
        0.00439734 -0.626455 3.29506
        1.11177e-05 -2.40457 3.34475
        1.03162e-06 1.78091 5.9551
        0.00325322 1.77791 5.95563
        0.00037782 1.78057 5.95513
        3.03736e-05 1.78088 5.9551
        -6.56368e-06 1.22054 7.16526
        -2.46547e-05 1.22054 7.1653
        0.000179255 1.22054 7.16534
        0.00480671 1.22005 7.16301
        -7.61767e-07 -2.99102 3.60032
        1.70533e-05 -2.99103 3.6003
        0.000358619 -2.9912 3.59992
        0.00374444 -2.99302 3.59612
        -2.91348e-06 5.50699 1.83767
        -3.34937e-05 5.50696 1.83765
        -0.000257387 5.50678 1.8374
        -0.00108318 5.50577 1.83483
        0.0354792 2.7798 -0.222838
        0.0104162 -1.43083 0.789251
        0.160968 2.7813 -0.268514
        0.0793477 -1.44785 0.69785
        0.296227 2.65002 -0.450859
        -0.00221699 -1.44935 0.419278
        -0.00172204 0.603371 -3.61185
        -0.00991463 0.573344 -3.6122
        -0.0734077 0.639512 -3.58361
        -0.00802076 0.815407 -3.4801
        0.012447 -4.6213 2.43556
        0.109044 -4.62394 2.4755
        0.304782 -4.71335 2.65663
        0.771905 -4.60835 3.76113
        0.0126344 6.78946 -0.624041
        0.0716644 6.78218 -0.669544
        0.310905 6.72636 -0.750229
        -0.116656 6.69277 -0.339346
        0.0511278 0.152887 -0.975547
        0.0699747 0.207932 -1.17098
        -0.233895 0.207577 -1.14527
        -0.0258586 -0.16267 5.12815
        -0.00751915 -3.05198 -3.32069
        -0.0760116 -0.102572 5.20662
        -0.0407483 -3.05863 -3.33015
        -0.223679 -0.19209 5.41096
        0.233281 -2.7576 -3.29368
        0.00542517 -5.30352 2.03605
        0.10569 -5.20538 1.99043
        0.00975868 0.381567 -4.43667
        0.431849 -4.92831 1.72753
        0.750681 -4.74882 1.58306
        -0.025223 0.344101 -4.41571
        0.00700251 0.275918 -4.36483
        -0.0216829 -7.3347 4.34398
        -0.0749638 -7.12633 4.53199
        -0.00226747 -6.21285 5.11363
        -0.00946217 0.281698 1.05913
        -0.0319847 0.296656 1.09096
        0.0597873 0.288195 1.14873
        -0.212105 0.693469 1.0657
        0.0275804 -2.58334 4.09038
        0.128963 -2.56305 4.076
        0.286438 -2.49494 4.07195
        -0.170427 -2.4258 3.87069
        -0.0165789 3.164 -3.17446
        -0.00784319 3.04418 -3.27399
        0.0307634 2.6308 -3.87227
        0.00874642 0.0613948 4.92188
        -0.00486646 -0.0216589 4.99585
        -0.106008 -0.0963247 4.9475
        0.00229076 4.46968 8.27813
        0.0079827 4.49069 8.26717
        -0.00304471 4.55396 8.28671
        0.00280766 4.64817 8.45714
        0.0521342 -1.43105 2.33418
        0.194219 -1.41722 2.20436
        0.379289 -1.24333 1.9334
        0.00110048 -2.11766 -2.17711
        0.00480977 -2.1379 -2.1635
        0.0588415 -2.19551 -2.12663
        0.115261 -2.39573 -2.24906
        0.0146505 -2.41426 3.32624
        0.0304921 -2.37787 3.27673
        -0.0231857 -2.29315 3.28827
        0.0248309 6.50648 5.05513
        0.0998882 6.48413 4.98614
        0.0147301 6.43104 4.94601
        0.0209678 6.44698 4.79589
        0.0235251 -0.633305 3.27163
        0.0227664 -0.629504 3.22754
        -0.124593 -0.508847 3.23962
        0.022727 1.76078 5.95772
        0.300047 1.55617 5.94219
        0.202022 1.79126 5.93836
        0.103855 1.70625 5.95548
        0.0407648 1.21709 7.14116
        0.0805055 1.23518 7.16053