<?xml version="1.0" encoding="UTF-8" standalone="no" ?>
<VTKFile byte_order="LittleEndian" type="UnstructuredGrid" version="0.1">
  <UnstructuredGrid>
    <Piece NumberOfCells="0" NumberOfPoints="15094">
      <PointData>
        <DataArray Name="velocities" NumberOfComponents="3" format="ascii" type="Float32">
        -3.59451 0.906837 -4.93872
        -0.499838 4.59415 0.179049
        7.18563 -1.61516 3.50952
        1.26274 -4.13176 2.88421
        -0.858831 -4.72604 0.991452
        0.512987 2.77932 1.11492
        -2.59032 4.74398 4.00851
        0.896197 -4.51112 3.5037
        -1.385 0.102391 -1.59529
        -0.319693 0.734479 3.12605
        -1.81493 -1.02549 -7.68562
        5.1505 -1.47265 5.99224
        -3.82661 2.31992 -0.841946
        -1.33506 2.92829 -3.02022
        0.683333 5.4369 -2.93172
        1.55444 5.41361 6.79618
        2.75108 5.66375 2.89344
        -2.09953 -2.64479 -0.76038
        -4.68816 4.64362 -2.61467
        0.281632 4.30428 1.23174
        -0.36995 2.47765 -3.49176
        2.07885 3.58802 6.53369
        3.13748 -4.71656 -0.709948
        -3.93048 -3.68484 7.96576
        -8.07976 -0.0314401 7.37122
        0.00448146 1.08581 -1.89848
        0.0815474 0.866984 0.72541
        -4.71341 1.7159 4.2022
        -1.66165 1.42629 -1.01875
        -3.36352 1.78211 -1.0559
        8.71218 -1.35382 3.86242
        -1.71464 -1.38691 -0.334128
        1.9276 1.46151 0.14402
        -0.351776 2.18671 -1.75899
        2.99528 4.7452 -4.63562
        -2.31536 1.12507 -6.09418
        -3.17468 0.404036 2.77421
        5.8067 0.509441 4.43272
        -0.773667 6.09725 -4.0132
        -2.03553 3.66138 0.87803
        -1.61673 -1.50286 0.0732468
        -2.26172 6.88856 -1.40575
        -2.93507 0.960052 -7.00685
        -0.707645 1.42336 0.779719
        -4.58535 -11.7832 -0.73775
        -3.1829 7.41825 -6.64096
        -3.65139 -0.221338 -3.96597
        6.1548 -1.73787 -1.12557
        2.70693 0.853526 4.34016
        0.817127 -3.03413 1.42675
        -0.953447 3.17257 -5.62463
        -1.41588 3.30693 2.77863
        -7.43263 -2.22081 -1.64364
        -2.79145 -0.0424768 1.86949
        0.162836 -4.22101 2.93826
        -2.69416 4.92325 -1.00048
        4.11367 -3.00275 -1.99677
        -2.09895 -1.78118 3.06568
        -0.217187 4.29367 7.33964
        2.78277 -3.7009 0.396951
        3.5417 -2.04745 -0.712574
        2.28807 1.3532 3.96586
        1.74133 -1.20769 5.87682
        -6.35575 -4.30022 -1.7304
        -0.216351 -8.95457 -2.66634
        -1.95206 -4.97171 4.06611
        0.0579125 -3.99539 1.78336
        2.39711 -2.0281 -1.96642
        2.68553 2.2148 -4.89935
        0.888476 5.66763 -0.196085
        0.969441 -1.78293 -2.47898
        -0.782706 -1.05016 1.11743
        1.453 -5.86203 -7.27607
        8.21374 0.404224 2.53863
        4.2045 -0.805233 -1.14037
        -2.25407 1.41239 3.48189
        -2.45112 0.176127 5.60789
        -3.23304 -4.04934 2.23223
        -2.27319 1.00431 -2.94974
        -3.13075 2.75277 3.66899
        0.547474 5.13278 -1.80976
        1.15825 -3.34492 2.67503
        -5.72212 -0.658025 -6.62051
        1.3991 -0.580532 3.04535
        -4.97773 -6.21084 1.32198
        -0.571212 3.2954 3.21903
        2.99572 2.88605 3.83708
        -4.33933 -3.40493 -2.72441
        3.20142 -8.62247 -2.25431
        -2.69394 -2.53552 1.85199
        4.3214 -0.703596 -0.745624
        -1.22525 2.56031 1.59159
        -6.33828 -2.35145 -4.2989
        1.43162 -9.09613 2.19332
        3.98252 -2.68345 4.62064
        1.95578 0.435944 1.01072
        -0.868437 2.81724 2.88445
        10.6014 1.58363 0.671129
        1.68151 -2.92929 -10.2399
        -4.02889 1.39992 6.29321
        -1.85559 5.14516 3.06697
        -0.340893 1.45537 4.3083
        -1.69859 3.44136 -2.21405
        3.81251 -0.0545992 -1.07723
        -4.67731 0.906664 5.95001
        -5.06163 4.68884 -1.55993
        -2.02774 -2.35362 1.45287
        2.298 -0.576105 4.62318
        5.23213 -1.6161 0.716613
        -0.901567 -0.0277214 0.605071
        -0.650784 1.93869 2.73652
        0.584159 0.130288 -5.79381
        4.72859 -1.81961 4.22486
        7.60813 3.8818 2.40306
        0.823402 -3.50926 -0.608425
        -0.0336311 -0.989367 0.850591
        -0.22888 3.22119 -2.35727
        -0.124141 -1.66242 5.01824
        2.65552 -0.0806985 7.77685
        -2.97391 0.815293 10.5271
        -4.78376 7.69085 2.40778
        -0.282893 0.988148 -2.93747
        5.78423 3.70784 2.2771
        0.784481 3.65151 0.736114
        -0.492401 2.7238 1.99102
        -0.309292 0.535618 1.1073
        3.14797 3.87143 0.261836
        -2.15297 -2.48429 -1.45861
        2.64803 3.61874 2.68885
        -4.54804 -1.94187 4.77905
        2.89423 -1.49515 1.69068
        -0.868341 8.08834 1.57665
        -1.43907 5.67916 -2.63643
        -9.92657 1.13576 2.95814
        -0.0880545 -2.63285 4.65994
        0.0458372 -0.0847917 5.5832
        1.95521 -3.32322 2.66902
        -2.06523 0.0743901 3.47772
        -3.09651 1.92987 -4.605
        -2.17888 2.33402 0.804109
        2.7907 5.14012 -3.62622
        4.39996 -0.00705766 -5.14137
        1.02818 -6.40273 -0.0698709
        4.1262 -2.80138 1.39918
        -0.920751 -3.48277 9.7474
        6.57207 -1.13401 0.398276
        -0.866269 -1.86078 -1.89547
        6.12629 -1.52147 5.92193
        -7.10933 0.152147 0.0459609
        -0.288663 2.70853 7.58785
        -1.86774 -1.01894 -5.63465
        0.687122 2.04445 1.63011
        -2.74243 0.555248 1.23039
        1.16551 0.587876 -1.91074
        1.51073 0.0434476 3.91941
        1.49937 2.80732 0.672718
        -2.34138 -0.0847634 6.55026
        -2.31578 -2.43107 -2.07161
        -1.34464 -0.64254 3.29536
        -0.664139 -1.10307 -7.89247
        0.690853 -5.27853 7.10804
        -2.05591 -1.8857 -1.38552
        2.42203 0.0317813 -1.3704
        1.61358 -1.21077 6.50639
        4.51775 3.13622 -1.56501
        -4.10658 0.12943 -3.48426
        1.88747 0.854744 -1.79283
        8.72599 5.65424 0.220088
        3.22235 -2.5349 -3.16727
        -5.30244 1.53416 2.60009
        3.62821 2.28169 -2.47327
        2.54998 2.67369 -1.83648
        3.8858 -6.36795 2.28039
        -2.70856 -0.794089 0.0363882
        -1.07335 -2.88325 0.0491144
        4.50979 6.8607 -1.29823
        -0.725979 -9.08838 -3.42115
        -0.873812 1.62534 3.8663
        -0.979019 0.516656 1.28193
        5.73389 3.48957 -4.49783
        -2.08621 -6.04242 4.35231
        -3.51358 -0.378284 0.491065
        -3.54324 3.22578 4.95925
        -5.1497 1.44171 2.15736
        -0.61398 4.23436 -1.57883
        -5.06207 3.26415 -5.30849
        6.21159 0.0593438 -4.97024
        5.93124 -3.92168 1.34446
        1.74764 9.32913 -0.633763
        -2.35093 -2.39892 1.65299
        -1.60428 3.12231 -1.96447
        3.26173 -3.20872 6.7437
        -2.39546 -3.94146 3.91843
        -1.07788 -0.637554 5.79978
        1.53248 -1.5694 1.3567
        -3.15474 3.12771 0.278514
        -0.128737 -2.71719 -2.27611
        5.86572 -3.62623 -4.15733
        1.96649 -2.1386 5.68029
        1.52946 6.34428 0.527074
        -5.23541 2.04043 -4.85809
        -0.673912 -0.840328 0.581499
        -2.05143 -3.09528 3.08353
        0.6396 -4.47278 -1.35477
        -2.50267 0.167242 2.3725
        4.43139 4.10772 7.05414
        1.69804 -6.39721 1.44583
        -3.59534 3.75462 7.94787
        -5.44732 3.17896 -2.2965
        -4.99794 -3.50576 -1.85929
        -0.921303 7.448 -1.38834
        -3.60921 -0.872061 -0.269312
        -2.30233 -2.84826 -1.7973
        3.56669 -3.3005 -1.70518
        -2.19855 -0.309173 -0.0354276
        7.16296 -0.268108 -6.01833
        -6.72266 0.299374 -0.46702
        -5.09557 1.19435 -3.65623
        -0.57324 -0.677547 2.23842
        1.60912 4.5306 12.6041
        -1.689 1.91097 3.45232
        -2.65836 4.36428 8.97135
        -0.251206 -3.26189 -3.76017
        0.393194 5.9667 5.37034
        -5.73566 -2.61945 3.16351
        -5.1732 3.11594 -4.29848
        -1.64646 -3.36726 2.10928
        -2.36831 1.16212 -0.444936
        -4.44823 -1.53164 -0.789716
        1.63806 -1.94648 5.11155
        0.421999 -1.55147 1.33862
        -4.69512 -2.70821 -2.06675
        -1.61583 1.59611 -0.120215
        -3.34643 -2.83236 -4.85191
        -1.81612 -1.72187 0.858709
        2.62112 0.00771669 -0.848791
        -0.452566 1.64946 4.76142
        -0.369838 1.97369 1.0191
        -3.8324 -1.60248 -0.985396
        1.21305 3.87197 2.75172
        -6.15375 0.807778 -2.79139
        -3.51629 2.18409 -0.244002
        -6.09273 0.333484 4.16773
        1.09189 -0.260711 0.927884
        -3.69659 0.601164 -1.16423
        3.24501 1.11585 3.70283
        -1.89398 -3.09497 -3.56839
        -2.81816 -4.18751 -0.460418
        -0.199093 -0.686125 -3.69315
        -0.850082 1.58611 0.347537
        -1.50999 -0.736505 -0.0341799
        0.981371 -2.79143 -3.12952
        -0.533379 -1.19853 -3.24456
        0.382461 -0.690925 2.53158
        -0.331451 -1.26873 2.44063
        -3.04732 1.04228 -2.19896
        1.01069 1.61966 2.51633
        -1.86996 7.5043 -2.95525
        -5.44733 3.36437 -1.62502
        -1.73929 -2.96954 -1.15884
        -8.18883 1.55624 4.57221
        -8.33588 -2.08893 -4.02398
        3.98009 -1.77638 0.532092
        3.41395 5.06704 2.05073
        0.0177746 4.9328 3.54806
        -4.01284 -1.25069 -0.837799
        0.966359 -1.34675 -4.6474
        -1.53479 -3.51639 -0.615397
        -1.76121 2.96436 -2.75706
        -3.66525 -7.05113 0.330128
        -5.27628 -1.55907 2.29987
        -4.63922 0.676223 2.2958
        -3.59487 -2.7609 1.42169
        7.5624 -1.35015 -2.03547
        -4.10561 2.60159 0.200345
        1.09106 2.36632 3.27539
        3.44553 -1.08065 0.328167
        -0.428051 6.16827 -0.584474
        -2.83507 -0.595175 5.92363
        3.17771 -2.98361 -4.31547
        -5.87298 -1.69777 0.528532
        -0.409928 4.8786 -1.15965
        -3.1691 -3.29219 -0.419575
        3.88902 1.73708 -0.124317
        -0.619817 -1.88558 -3.15881
        5.57251 -2.1494 -5.00372
        -3.23575 -3.77545 -3.86024
        4.59692 3.11288 0.199085
        -1.09434 -1.05665 -2.50158
        -2.2456 4.83179 -1.85154
        -0.96784 -2.27872 -1.71085
        -3.22257 -1.35128 0.00678866
        2.19355 2.42383 1.14321
        -3.85063 0.282799 3.24262
        1.06101 -5.73704 8.86821
        -2.75033 -0.94925 2.19508
        -0.827874 3.32739 4.24282
        3.70793 3.28635 -4.22342
        1.1216 5.45946 -1.81454
        0.350608 -1.92391 7.32689
        3.39459 -4.21107 4.20203
        1.0072 -3.71575 -0.870404
        -2.8214 -3.79573 -1.79874
        3.9346 -1.98995 3.35702
        0.318545 -4.88646 5.54625
        -0.523965 -7.76253 1.47484
        -1.0251 -4.07629 -0.18874
        -0.465857 3.52339 2.17641
        -2.99355 4.91074 -3.7342
        1.39562 -0.250622 -0.312667
        0.333054 -4.50124 0.535044
        5.61869 3.37166 1.0857
        -4.52685 3.65713 -4.08392
        -1.78527 -3.60536 4.54379
        4.49402 9.24292 -1.44309
        -5.54146 1.17212 -2.22394
        0.258355 0.121596 0.328595
        -0.593036 -3.10826 3.28341
        -0.99793 5.75851 0.446326
        -5.08572 -3.61313 -4.18422
        3.27814 9.69313 -2.84142
        3.14024 -1.58305 2.17935
        0.834565 0.440911 0.469672
        -4.20893 -3.94551 -0.715031
        0.900152 -7.12277 -1.06287
        -6.49387 -3.99553 -5.49107
        -1.60973 -2.61506 0.848418
        -4.87209 -0.489316 2.95064
        0.118223 6.2033 -4.63126
        2.70968 -3.50952 -3.58855
        -0.0782726 1.58042 -0.886832
        -9.75972 -3.62538 -3.52668
        -1.32562 5.12573 -4.78566
        -0.107513 -0.915751 -4.8006
        5.46886 -3.84271 3.10312
        -2.82693 -1.22723 -0.323971
        -4.10322 -9.45425 2.36429
        -6.1595 -0.968465 -3.84504
        -1.94293 4.9721 2.62917
        -3.73388 3.57502 3.78367
        -1.43213 -2.85415 -2.77896
        -3.31288 -1.16344 -1.69883
        -2.04342 2.99819 -7.15653
        2.0307 -0.681242 -1.36047
        -8.00318 -3.82637 -0.713984
        -2.09753 2.27285 -5.26611
        -3.43627 -0.178677 2.05639
        -1.99089 -4.74557 9.26791
        -1.14655 1.98299 -0.34414
        -4.74933 4.53165 1.83486
        0.711896 0.885179 2.86194
        -4.37364 1.35226 0.302216
        -2.01597 0.936989 -0.231769
        -4.17474 3.30149 2.79311
        -4.87985 2.85081 1.41108
        1.21006 -5.04343 -3.44749
        -0.0893873 6.89627 4.89561
        -2.94613 -3.16526 -4.86289
        -3.28723 -2.52624 -0.55695
        -1.43628 1.55445 4.15229
        2.79445 -0.627072 -1.95998
        1.78443 -1.24286 -1.60695
        -5.58619 -8.78163 -1.90936
        2.91823 3.78982 0.501286
        1.30473 1.95025 -1.68171
        -1.95846 3.83413 -1.1524
        2.59701 -5.79895 0.521649
        0.338594 -3.00057 0.353165
        -2.13183 3.35414 -3.43253
        -6.65794 5.9034 1.27359
        -4.0737 -7.12416 3.25627
        0.36778 3.80555 -3.44429
        0.666478 -3.50497 4.11598
        -7.90911 -2.90654 -2.04395
        -0.134245 3.99578 2.22221
        3.13128 2.05077 -1.8183
        2.39797 2.47649 -0.132564
        -6.35465 -3.46745 -6.09343
        1.65877 -7.20336 -2.36797
        2.45201 -1.48586 -1.15283
        -3.5078 5.53262 -2.03851
        4.3836 -0.903967 -0.896489
        -0.169243 -1.04981 6.40958
        -0.78009 1.51141 -5.10617
        -0.264975 1.04514 3.99712
        0.842094 1.00126 2.9596
        1.80193 0.905323 7.01749
        -0.395644 -0.148277 0.893889
        -3.43524 2.94325 -3.23121
        3.08625 0.988728 8.10855
        -5.97785 3.87162 5.01157
        -2.40055 -1.2638 -2.41702
        2.29183 1.53386 -0.573669
        2.84732 4.04037 5.07595
        -6.99485 8.21528 2.65656
        -2.70855 -1.28701 -1.49905
        -7.15133 0.725118 0.218094
        0.140098 1.82844 -0.454308
        2.014 0.599392 -9.02162
        0.276119 -4.96455 -0.163913
        -9.1912 0.014673 0.00237382
        -5.74864 -4.33734 0.435755
        -2.74734 6.87449 -5.4967
        1.74212 -1.86589 0.283707
        -1.61819 -4.05089 -3.76111
        1.67883 -5.55763 -0.110524
        -3.02703 -3.19268 -1.04593
        -1.98206 -7.45477 -4.89358
        -0.862084 2.30828 5.86864
        -4.73301 7.73392 1.8647
        2.20455 -1.24352 1.69425
        0.854716 -0.528721 -0.684501
        -2.17817 0.748327 8.11669
        -3.41648 1.42284 0.445283
        -5.9196 -2.91698 -5.42878
        -1.43011 -1.12728 -1.29495
        1.12613 -1.35319 6.86023
        -2.91387 1.708 -4.16853
        -2.64291 -3.11171 -0.743357
        0.323421 -1.42558 -0.0665535
        -5.08228 3.71626 -0.901267
        -3.91185 1.41276 5.99885
        0.981746 2.37952 1.71783
        -5.32768 -6.76184 4.59373
        -0.924022 -3.26354 -3.40482
        -0.637368 -3.31261 -0.107715
        -2.27145 4.57796 2.5882
        -2.63248 3.04758 0.357093
        -3.11724 -0.881758 -1.96567
        -1.03936 -1.91492 5.64323
        3.40027 -2.49191 4.06992
        -1.17136 -1.72271 -2.11001
        -4.25258 -3.35855 -0.395184
        -4.42408 1.47645 5.22867
        4.36745 2.05555 2.78713
        -2.88061 -0.826532 -4.40352
        -5.99191 -1.76024 2.88188
        -0.204042 -0.541101 -2.93063
        -3.90087 1.18649 0.0804
        -3.71736 -1.40042 6.17438
        -1.87856 -3.18361 -2.94706
        1.53617 1.53042 -1.14153
        -3.18338 3.80608 -1.0474
        -0.933876 2.59177 -1.07052
        1.76563 4.20705 1.3975
        -1.73095 -6.24078 -1.20227
        -4.10243 5.1304 -0.546623
        6.42454 -5.67983 4.31441
        -0.881203 -6.81546 -0.381785
        -0.553379 0.858899 -2.50691
        -4.08616 -0.344256 -3.50713
        -7.5046 -1.70832 -4.43977
        -2.35643 -1.78119 1.33834
        -0.0505856 -1.51885 -3.48304
        1.58587 -8.29234 -1.24867
        4.91695 -3.47106 -3.11342
        4.02881 5.03315 -5.49763
        7.50095 -5.87279 -1.90156
        -2.10973 0.858133 -0.675265
        -0.69467 -2.42196 1.04919
        -9.11177 1.11144 1.2677
        0.208751 2.69384 0.26299
        -3.10461 4.67467 -0.693379
        -4.02415 -2.56506 -0.989582
        -2.58441 2.71857 1.02194
        -2.13361 -1.051 0.610283
        3.06301 -4.07394 -2.35287
        -0.505322 2.98444 -2.36396
        1.3921 1.93772 -5.91719
        0.333336 0.5086 -0.137959
        -1.84053 -3.87839 4.18438
        -3.58497 0.11407 -3.64313
        1.19326 4.73434 1.56215
        1.54488 -0.191776 2.02074
        0.152656 -1.67848 6.64552
        -0.755977 2.41083 1.71745
        -1.79124 -4.05711 -4.60085
        -8.81517 2.54184 -2.21247
        -1.31999 -0.44255 -1.37121
        -2.73169 -0.555176 -4.56401
        0.291119 -5.25723 -3.02307
        -1.45901 -0.863897 -6.88229
        -1.26522 0.0401794 0.663024
        -1.12021 1.10914 -4.91086
        -4.08487 -9.55247 0.0261448
        -6.13529 -5.80096 -1.31437
        4.34967 -0.77068 3.4603
        0.868781 -0.0797961 -0.440763
        -3.35654 4.49354 0.717592
        2.60489 -4.08909 -4.65224
        -4.32353 2.09292 -3.37774
        -1.79519 1.28593 -5.88527
        1.07797 -4.10115 1.8005
        1.30736 -1.17094 -0.918137
        -4.23905 1.10677 1.45836
        -0.239529 1.98534 -2.80739
        -0.346647 1.7477 2.59571
        0.294126 -2.23046 -4.76332
        0.519537 2.57566 0.539745
        1.32423 -5.398 0.0598912
        -3.84011 -0.289041 2.63393
        -0.43505 0.0726515 4.41331
        -1.52246 3.96574 0.944536
        -4.17413 3.39528 -0.204482
        1.03459 -3.45393 2.09101
        1.18969 5.78901 -1.69102
        -0.343319 2.87741 1.43644
        -0.99741 0.0550535 -0.410173
        -4.33668 6.59326 -5.17634
        -1.26867 3.56232 0.524752
        -1.37196 1.47963 -3.55257
        1.83929 -2.35171 -0.877877
        0.666953 -1.14405 -2.63486
        -4.53986 3.45967 -0.333143
        -0.665421 -5.78789 2.35697
        0.194097 0.16984 5.92818
        5.78141 0.811281 -2.11679
        -0.632003 2.63766 2.62352
        -6.23235 0.0401935 -0.560541
        -0.00645599 -1.45873 2.80653
        2.25899 1.48614 1.39668
        -4.71885 -2.18143 -1.01993
        -5.55338 -2.35834 0.338966
        -6.12634 0.771609 5.68768
        0.388182 1.77923 -3.72237
        5.1773 3.88902 -5.63684
        -0.329365 -11.0344 4.48611
        -1.42458 -2.46299 -1.44534
        -6.14659 -3.17463 -0.851216
        0.625513 -1.10065 -1.07531
        -1.08142 1.17403 1.13124
        -3.78071 -3.61619 3.59862
        -4.78134 -1.18388 0.457398
        -5.82824 3.51024 1.15411
        3.18863 3.45897 1.08945
        3.53074 1.51419 1.26073
        0.792379 -4.27476 -2.52328
        -3.88468 -2.15476 -1.58467
        3.23691 -3.61469 4.32437
        4.45099 -3.19047 1.86659
        -1.9179 8.21956 1.73666
        -0.926919 0.1448 -1.59478
        1.7849 0.516358 1.96827
        -2.66358 4.06292 -4.87446
        -1.36721 1.68851 -1.05464
        -3.03428 -0.0609859 -1.36513
        -0.986733 -1.66133 -0.778744
        -0.0631434 -1.35989 -3.24191
        0.695131 0.526581 2.0032
        -1.64297 3.23267 2.35875
        4.6799 -1.1477 -1.98472
        -2.44303 6.89896 -1.27543
        -8.3248 -0.56216 -1.39405
        -0.584666 -4.94927 0.820966
        -4.73325 7.52676 3.97681
        0.0561189 -3.8471 -2.12532
        0.542384 -1.6634 -0.671573
        -4.3114 -3.74689 -3.7547
        6.23083 -0.76189 1.8408
        -1.43175 -0.951728 -4.01002
        -4.72388 -3.2598 0.97232
        -4.84248 -5.00602 0.813208
        -3.72859 -1.19888 -1.69472
        1.00231 1.92724 2.59146
        -5.05389 0.0281755 -0.337533
        0.537387 -0.582753 -6.56789
        -3.85296 1.74267 -4.57168
        -1.86208 4.86989 -4.30094
        -3.2511 5.73397 4.55355
        0.386768 5.55348 3.48493
        -6.61299 3.21949 -0.470216
        -0.456889 3.07695 -3.15338
        -3.15373 -4.1966 2.64232
        -6.2969 -2.44748 -4.06313
        -1.05018 -2.30613 1.84258
        4.59166 0.662904 -4.38493
        -2.94812 -0.599302 -2.41681
        0.687869 -0.950845 1.25679
        -3.24547 0.121762 -2.34274
        1.38905 -5.3862 0.596154
        -1.84772 3.11609 -1.70801
        1.62403 1.32808 2.93988
        0.227126 -1.61058 -5.20416
        0.68922 -0.910803 -6.19154
        0.705511 -1.36765 -2.57461
        -4.34454 -3.44605 -2.63878
        -0.875956 -5.0092 -1.53862
        -0.801958 2.62496 -3.72591
        7.18783 0.485869 -1.89625
        1.15372 0.229235 -1.03933
        2.50528 0.285964 1.65449
        -1.44663 2.09494 -4.12779
        -2.12393 0.726922 -2.36533
        -6.01108 -3.10849 -1.13804
        -6.15676 2.42687 -0.507511
        -2.34613 -4.33154 0.444766
        -0.655217 4.35322 4.80492
        6.85254 3.35652 2.24337
        1.00617 -0.113967 -1.33308
        1.76488 -1.02551 -0.721503
        -6.52251 1.50257 1.86646
        -0.793707 2.17944 2.55806
        -5.9391 0.998522 -0.997745
        0.515401 3.7485 1.55675
        1.62224 1.68663 -3.8342
        8.22474 5.23686 0.6923
        5.27483 -2.823 -5.06912
        -2.43607 -2.88493 3.73899
        2.78987 -2.88984 -0.646594
        1.86162 0.464063 1.89064
        0.412491 5.73754 -2.10556
        -1.40466 5.58664 0.928354
        -0.0529866 -2.87452 3.60161
        5.2969 1.73992 3.5669
        2.67237 -0.476895 1.97552
        1.55361 -2.57485 -3.21871
        -0.77685 -0.737005 -0.915771
        3.62107 -2.68222 0.871821
        7.52139 -0.654672 -1.4646
        -0.282265 1.66989 6.104
        -0.193973 -0.272231 2.29749
        -2.18686 -2.86943 -1.29029
        -4.39301 -2.94392 3.70442
        -5.99361 3.03893 -3.62794
        2.10106 0.0897205 -2.53519
        3.65397 -0.952223 1.06581
        0.711772 3.79237 -3.99931
        -1.06069 2.15629 2.77439
        -2.16384 -0.257636 2.65156
        -5.98377 -0.288669 2.4174
        4.80062 7.07618 -0.886521
        -1.93492 -4.67416 0.723884
        -5.54183 -1.90748 -3.25188
        -4.33391 -4.48417 -3.94582
        3.65259 4.46355 0.20023
        -0.36491 -4.29256 -2.20901
        -0.910088 -3.13943 3.61057
        -0.263224 -1.74029 -0.821717
        0.177795 -0.605161 -3.08825
        1.05277 3.00663 0.495418
        -3.28537 -0.276268 -5.01237
        -3.931 -0.959435 -4.30855
        3.0551 3.62284 0.575353
        6.78111 0.919066 -2.98482
        -2.34937 2.5736 -0.916657
        -2.82171 -0.564543 -1.2577
        -6.03274 -1.48826 1.86434
        -3.68673 1.90377 0.0217978
        2.26398 -2.35628 -0.475244
        -7.94236 5.41134 4.20848
        -3.10365 2.74667 6.26897
        3.64468 -5.23695 -10.0371
        -0.0791403 1.28981 -3.71779
        -2.96515 2.07864 2.8111
        -2.61125 0.67708 -7.51103
        -2.53761 -2.93719 1.43711
        -3.84065 1.22083 0.640543
        -3.70161 -1.41219 -2.53669
        -5.7226 4.58858 6.99986
        4.076 -5.27388 1.22308
        0.404387 -1.62612 2.11916
        0.0987633 6.32872 0.0790675
        2.14233 -3.62777 -0.355394
        -0.545762 1.93892 -0.213968
        -2.94407 -2.63486 -0.317855
        1.07181 0.684404 0.384467
        -0.551635 -1.90596 -0.466595
        -1.25793 -0.262375 0.968351
        -0.451841 -4.63599 5.10585
        -5.28161 -3.29838 -1.40379
        -5.66918 0.0739352 -2.5824
        -0.460392 0.97083 -0.361171
        -1.58446 -1.98518 -4.22144
        -2.92874 -0.649528 1.98584
        2.8559 2.37215 -2.37669
        1.46323 6.30907 -3.23479
        -4.05824 1.96973 1.56716
        0.740971 -3.53831 3.56379
        0.310744 1.22071 0.0836079
        0.947674 2.60237 0.245054
        -0.235335 3.00292 0.248939
        0.904862 3.43567 0.0482325
        -5.32177 1.05699 0.392874
        -5.5704 1.42768 0.838214
        -1.98674 -3.65992 -0.495434
        -5.44257 0.55988 -2.17899
        2.17529 1.04769 -5.89198
        0.141071 1.73037 -4.52154
        -1.54258 -0.18939 -1.80167
        1.54469 4.07302 -0.898891
        1.73616 -1.4962 -3.27736
        1.8032 1.81377 -0.787407
        0.831647 3.26336 1.62921
        -1.30919 -2.31899 -5.01742
        0.159108 1.52969 0.493532
        -4.05627 -4.44058 0.266666
        1.13772 -3.75605 -8.51673
        1.1588 -3.07969 2.55607
        6.01164 4.41192 2.95916
        1.81143 -2.82686 4.6267
        -3.40292 0.171026 0.824977
        2.36841 -0.489395 -0.937466
        -1.76734 -1.52816 -0.580086
        -1.23333 2.33283 1.75968
        3.29861 2.58868 0.865978
        -0.713822 4.29746 -1.80723
        -5.93555 -0.0687628 -0.307189
        0.885748 1.46921 4.40185
        -2.30973 -4.81071 -2.53343
        2.04283 -0.519639 1.84156
        -1.39059 -1.63683 -1.51111
        -0.674925 -0.522707 4.75362
        -0.907276 -1.79745 -4.93307
        0.978509 1.51595 -4.8702
        0.660934 -4.70907 2.04875
        -1.9454 -2.61641 -0.880536
        0.981845 -8.08322 0.0361585
        -3.24831 -4.88988 2.2876
        3.08232 0.180566 0.818994
        0.536898 0.685311 -2.97451
        1.80373 1.13273 2.89328
        -1.17747 2.22687 0.149794
        -2.48587 -4.43323 -0.128064
        1.98865 6.10794 5.42733
        3.25615 6.54973 0.0533753
        4.91684 -7.52408 -6.16288
        3.29984 2.79314 -2.13554
        -0.0289485 2.76548 5.12278
        5.75987 0.901191 3.05735
        0.40031 5.05223 -0.609738
        -7.99037 0.0800997 1.33588
        0.161778 -2.08804 -3.75797
        1.2766 3.09199 0.579869
        -1.40776 -4.42038 1.48329
        -3.02306 1.73155 -0.260076
        -0.631517 4.74125 0.236544
        -1.3521 4.39367 -1.52108
        -1.72429 -0.339715 -0.272835
        0.576754 4.3786 -1.55636
        -1.79429 -6.08874 0.363843
        3.52776 1.81237 -3.99705
        6.02759 -3.46596 0.8867
        1.19528 -0.97068 3.59619
        2.20864 1.07818 4.20262
        3.80219 0.115107 -0.848776
        -2.93765 1.76677 0.687205
        0.636968 -3.26663 3.87941
        -3.28287 -2.23246 -3.29307
        -0.764741 -1.64654 -0.534026
        -0.518086 1.292 4.82463
        0.825706 -2.992 -2.79878
        0.434797 -1.45256 -4.67725
        4.20373 0.982839 7.45079
        -3.00079 -5.11684 1.04644
        -4.45078 3.496 3.11233
        0.104655 -3.82139 -2.54386
        -2.18379 2.21392 -0.671062
        -2.05204 0.177073 2.16249
        -2.43175 1.94039 -3.42213
        0.473534 -2.51541 1.8524
        -5.9117 -0.326033 -1.69882
        0.581307 -0.318287 0.177498
        0.914804 1.67321 0.483641
        1.5633 -1.12545 4.53196
        1.58118 -0.921798 -2.13702
        -2.18128 2.41877 3.54526
        3.17982 -6.28037 2.07859
        -1.10881 -0.315214 -4.7078
        -1.15086 4.32402 -0.442323
        -1.62805 5.05878 0.627063
        -0.242558 0.701615 -0.393539
        0.0970963 2.99975 1.63829
        5.05181 -1.2793 -1.89192
        1.78445 -8.05325 -3.33202
        3.01644 -2.2328 1.81185
        0.62518 0.803947 5.24473
        0.445339 1.09207 -1.27809
        -0.169105 -1.84151 -1.49609
        4.21513 -3.89936 2.53118
        0.51283 0.769978 -1.55119
        -0.452601 -0.10626 -0.745973
        0.845813 5.75783 4.03871
        -1.35411 7.30645 2.86002
        4.77023 6.67953 -2.07585
        -0.565214 -5.78938 11.2363
        2.02904 -3.16658 0.890405
        0.0512372 2.20938 -0.561405
        -1.28616 -3.20993 2.65081
        3.81444 1.60668 -3.64812
        2.6592 0.456533 -0.376196
        -4.29932 -2.17802 0.985149
        1.48941 1.11359 0.151421
        -0.175462 2.44776 -2.00669
        -3.35125 -3.17645 1.28866
        -2.54432 2.92074 2.69184
        7.06923 4.0644 -2.76597
        -0.860517 2.33926 -3.92728
        3.06222 5.99611 -1.85028
        4.87053 2.67532 5.07973
        5.85796 0.640427 -1.69765
        0.842308 -0.977558 -1.97295
        -0.285762 -1.42837 -1.49428
        2.07911 3.34064 -4.44358
        0.595771 3.15668 -2.34122
        5.55797 1.88797 1.96024
        -3.15506 1.57842 0.0279527
        -1.32011 -0.255647 2.68024
        -2.63697 -2.74927 -3.58486
        -3.66056 -0.974665 0.930594
        -1.01278 2.0441 0.12353
        -1.34272 -1.44478 0.41959
        1.36108 5.70863 7.61773
        2.83171 -2.33805 1.50791
        2.5533 1.73227 3.46219
        1.74027 -1.53145 1.14392
        0.248774 -4.08547 0.618867
        -2.5399 -1.10461 -2.61888
        1.17144 -1.50268 1.13002
        2.81248 -1.61248 0.887708
        0.103519 0.660244 2.2132
        3.19685 -0.843474 0.471096
        0.714077 -5.40793 5.81275
        -1.54091 -0.214435 6.71411
        5.32618 -1.83725 -6.94189
        -4.61166 3.03304 1.38861
        2.87758 2.11181 2.26521
        -4.00495 2.51874 6.66436
        0.419413 6.96135 -1.72423
        -0.583607 0.565539 -1.62033
        4.45195 -5.02448 -2.22887
        0.783373 -0.409693 2.12112
        2.35293 3.61458 -0.570943
        1.83552 -1.26526 -1.29404
        -4.49834 0.742224 2.25381
        -0.177571 -0.384168 0.0838855
        -1.11863 -3.9982 3.01384
        -0.23898 0.827105 1.03636
        -0.780072 2.6292 -3.80041
        1.12948 0.130163 5.36753
        2.89787 -2.57347 -0.182352
        -3.36525 -3.25813 1.73952
        0.861163 -3.42661 3.45786
        -0.952034 4.05498 -2.99723
        -0.127911 -0.592449 3.23767
        -2.43252 -2.34499 -2.73154
        0.903189 -0.565853 6.04132
        -4.34588 -5.98839 -0.661982
        -0.909043 -3.89157 2.26929
        -1.1861 -2.31901 -2.61708
        1.10543 -0.451644 -1.80094
        -2.14426 1.16886 7.22607
        0.340999 3.16018 -2.93827
        0.37106 -0.981641 -2.74501
        -2.20182 1.44908 2.02897
        3.04428 -6.73967 -1.23992
        -0.916226 -0.379216 0.0108913
        -0.612112 5.40131 4.25005
        1.30479 -2.28014 2.85419
        -1.89116 -3.43609 3.26932
        -2.4522 -4.07164 -1.12808
        -2.91265 -8.34728 -3.36425
        -0.310854 -2.10036 1.42103
        -1.65522 -4.03664 -2.91765
        -1.5829 3.10307 -2.34218
        -1.20942 0.799524 4.13368
        1.1261 -1.76774 4.62482
        -4.90711 -0.964837 -0.553492
        0.403453 1.81739 0.888105
        3.55316 -4.27096 3.21624
        -1.9249 -0.796316 -0.950038