<?xml version="1.0" encoding="UTF-8" standalone="no" ?>
<VTKFile byte_order="LittleEndian" type="UnstructuredGrid" version="0.1">
  <UnstructuredGrid>
    <Piece NumberOfCells="0" NumberOfPoints="15094">
      <PointData>
        <DataArray Name="velocities" NumberOfComponents="3" format="ascii" type="Float32">
        3.17294 -3.25479 -6.15898
        0.771642 -4.71704 -0.561591
        0.599695 5.72594 -3.18081
        5.67402 -0.939578 0.258431
        0.977537 2.25693 -2.33219
        -2.47457 -1.73237 2.92388
        -0.709492 1.52947 4.95925
        1.02983 -2.33918 -1.15386
        -0.941705 1.17142 1.06314
        -0.283353 1.74145 3.30748
        4.06541 0.192068 -0.998137
        10.0452 -2.83934 -0.0911108
        3.45463 4.85614 -2.21184
        -1.11533 -2.73696 -6.43993
        0.40314 -0.950084 0.531387
        1.28126 -0.787772 -3.61914
        -2.69107 0.267962 -4.69294
        2.08231 -0.844381 2.1421
        0.843123 4.71644 -4.90601
        -0.680913 -4.60253 -0.845744
        -4.85359 7.16763 -1.1322
        -2.2454 -7.19853 -2.04318
        4.47433 3.77946 4.75382
        3.89616 -7.72323 0.829745
        0.438373 -4.59006 -2.00013
        0.432921 -0.214799 0.115852
        -2.91052 -3.9156 2.3294
        0.339849 -2.67421 1.78508
        3.36807 -3.70765 -1.93125
        3.75636 0.925511 -2.24162
        5.81994 -0.154734 1.60717
        -1.12554 0.862236 2.42508
        -3.12741 -5.85659 -3.00673
        7.31852 -4.13664 -4.80829
        0.399685 -5.33309 -2.89386
        -0.527694 -3.19971 4.29147
        -4.58269 1.39928 -2.24444
        4.01398 2.90366 0.284325
        2.02942 -2.43493 -0.0884818
        0.97172 4.14507 -3.06137
        -2.50972 -1.63261 -1.05196
        -5.38144 2.11264 0.994433
        -0.122264 -0.834632 5.04467
        3.50984 2.50356 -2.91596
        -1.14866 3.2461 2.82128
        -3.77221 4.07204 -1.10605
        -0.698774 -5.49381 1.67648
        -2.44067 -1.73852 1.30583
        0.106548 -1.16617 1.93851
        0.843921 4.25024 0.68582
        -2.54771 2.78429 -0.195822
        1.24488 -3.22413 -1.03051
        5.23673 -3.20769 2.10992
        3.99333 -5.3248 0.620248
        -0.0425219 -2.8015 -8.79065
        0.485832 1.9817 -3.93807
        1.46944 1.95822 2.83406
        0.305309 1.4108 -3.21519
        0.24571 3.32315 6.64803
        -2.29711 0.144519 0.0929129
        4.11072 8.8757 3.52886
        -4.97233 -2.16753 -0.366816
        -1.57735 -1.5237 0.211947
        1.87648 1.14074 2.8906
        3.59046 2.06998 -2.76599
        -2.46947 0.679474 -1.39019
        3.80169 4.75725 -6.11577
        -3.73862 0.758476 -0.269503
        1.25958 -5.3313 -2.62191
        5.08915 -2.21336 -0.334488
        0.985395 3.80972 -8.66405
        -0.0504782 -5.34517 0.784108
        2.44504 3.47477 -3.63275
        4.37701 3.64426 -1.00106
        2.3125 2.44874 5.05938
        -0.887792 1.72069 -2.12343
        -0.282834 6.56508 0.792163
        3.03491 -0.0521563 1.21354
        3.27449 -0.9812 -3.11637
        -3.42858 -1.02917 1.04664
        3.96355 4.11482 -1.38543
        1.9271 -2.27507 0.276713
        3.38865 -3.04623 -5.39583
        0.277199 5.37783 -4.55045
        4.01974 -1.19304 4.54617
        4.31795 0.972476 -4.97508
        -2.56252 6.69832 3.24052
        5.49594 2.87477 -0.757015
        2.71354 0.089456 -2.9988
        -0.280786 0.489559 -0.461464
        -0.319249 4.8628 -0.514086
        4.96342 -3.05547 -4.67252
        1.93973 -0.938792 1.67835
        -1.8393 2.22556 -0.882936
        0.223988 -0.570268 5.6992
        -9.18458 1.10396 3.04043
        0.00744717 2.66142 -1.83914
        3.56295 -2.69364 2.81371
        3.03502 3.07436 -0.730277
        1.13672 -1.20615 -4.06897
        2.93202 -0.660987 1.27423
        -3.13285 -0.788836 -1.27481
        3.41883 0.354198 4.62203
        4.22516 0.500091 -0.886908
        0.349792 -1.0987 -3.33532
        -1.68989 -2.03879 0.600229
        -0.345546 -1.92361 0.880491
        -4.15625 -2.30715 -1.25216
        4.4468 3.81214 0.528794
        1.29121 -0.76727 1.19921
        3.51931 -2.75723 -1.26607
        0.218311 -1.11844 2.2395
        -1.33674 1.13533 2.54592
        0.867939 0.468446 0.223533
        2.03983 -1.04302 -1.31813
        6.52163 0.800451 3.81686
        1.35781 -1.55362 -1.31286
        -1.38019 5.38657 5.76962
        -2.45328 2.35494 -1.85789
        -2.38759 -2.97234 3.84629
        2.89264 -6.99412 0.921507
        -3.43317 -0.305734 -0.284753
        1.43399 -1.27125 0.28155
        0.975887 4.6946 -0.186663
        -1.3621 2.08839 0.36476
        1.49078 0.150994 1.31544
        -2.27372 -1.23255 2.54111
        2.7893 -0.834004 -0.0831943
        1.52203 7.57178 2.13674
        -3.06032 -8.07591 0.708617
        5.17084 6.00678 5.40583
        0.0431491 -4.62584 4.60854
        -0.765743 4.86927 -3.24389
        -1.66547 0.564713 1.86509
        -2.72579 1.13018 -3.27265
        -5.08079 -2.70254 -0.0805882
        -0.541435 1.09563 0.232815
        1.33351 -0.0921149 2.52366
        -0.785986 0.886779 4.85024
        -0.653979 0.19859 -0.0679157
        -0.180824 -1.32074 9.32283
        1.3817 5.90265 -2.21157
        2.5045 -3.11442 -8.08153
        0.753565 3.1054 4.2811
        -2.65121 5.93403 1.46156
        1.35793 3.75361 3.49017
        2.3374 6.02443 3.20483
        -2.73043 0.0957799 -5.17621
        0.743162 -1.53782 2.25412
        -0.489479 -1.29841 -3.2741
        1.38887 -2.50884 -0.292662
        6.00312 -0.0736067 0.581286
        -0.275688 -1.24329 -5.05672
        -2.02739 -3.88803 2.75707
        4.81305 -1.34188 0.629711
        -1.80575 -3.06491 4.55021
        4.06705 0.265307 0.207065
        3.60905 8.00336 -6.06627
        -1.82605 -3.70647 1.27244
        2.12604 -5.69779 -5.14629
        0.798482 -4.65966 -4.32708
        1.63024 -0.304437 0.731256
        5.72984 -7.39163 6.39433
        1.26767 -0.0465732 -5.60259
        7.72628 -1.51804 0.493074
        -0.356224 -1.88234 -0.829329
        -3.3989 -3.77524 -0.905338
        3.59708 0.63705 3.36971
        5.201 3.52582 -4.54526
        -0.93254 -0.358573 2.76722
        1.89834 -0.533765 3.89945
        0.126632 1.88373 1.96793
        0.450836 0.810117 -0.725981
        3.99678 -2.99131 1.35385
        -1.24661 -1.96849 2.60157
        3.36019 0.619323 -3.43301
        2.94378 -3.74069 1.05805
        -1.31861 -6.99777 -0.562466
        0.0388915 -3.22505 0.718668
        -0.956428 3.53984 0.509768
        1.17605 -0.230841 7.44375
        -0.199864 10.7692 -3.15263
        -0.487613 2.33571 2.41992
        -2.08212 1.02699 0.315952
        0.957703 -0.258455 0.621492
        -2.34212 -1.87482 -1.93157
        5.99436 -3.49571 -0.29572
        3.6743 2.13724 -0.977824
        -3.60136 -3.78728 1.81699
        -2.89649 0.342342 -5.72505
        5.27921 -3.74465 2.2534
        2.51505 4.5996 -0.472757
        0.305344 0.519317 0.566141
        0.107305 0.939235 0.383576
        6.8695 0.236476 -7.18766
        6.11133 -4.08854 -2.87476
        1.79191 -0.0475658 2.24317
        2.22199 4.49352 -2.70128
        -2.04518 1.23989 0.390161
        -0.536299 -1.53137 2.71877
        -1.17451 -0.0676537 1.08788
        -2.96865 2.33646 4.97249
        -0.430799 1.4088 -2.68936
        -7.34794 2.10165 -3.92649
        -0.95331 0.72138 7.58479
        4.46128 2.45947 1.07801
        0.758249 0.109458 -1.89241
        0.342303 0.106001 0.0965556
        -1.84862 0.672046 4.94138
        3.54571 0.490613 1.49574
        2.29365 1.60565 -2.5155
        1.42895 -7.9129 -0.228582
        -7.20301 -2.69914 0.974735
        3.85293 0.320474 -0.204448
        0.89237 -1.38512 -3.34239
        5.62233 3.73983 -2.26091
        3.43272 -2.00062 1.31512
        -1.64993 0.654487 0.604211
        -0.565582 -4.38979 0.780499
        -3.38423 4.01009 -0.554418
        6.22035 1.45347 -3.26901
        -2.00571 -2.86054 0.505118
        3.86778 1.30622 -1.24459
        -1.31257 -2.28071 1.07351
        -0.754072 -6.36571 3.12718
        2.72247 -9.04868 -1.34785
        1.60339 0.965541 3.6145
        3.43017 0.797991 -0.484632
        0.765516 -1.98576 -3.62112
        -0.489471 -5.21758 1.84286
        -2.67956 0.769867 -1.61163
        1.14796 5.34533 2.80839
        1.46592 2.34423 -1.13508
        1.98102 -4.01444 -8.23146
        3.80664 4.23706 -2.59661
        -2.30859 -1.89115 -2.99667
        -4.83889 -2.42577 -0.495813
        2.01139 2.08379 1.30485
        -0.723404 3.10388 -3.25934
        4.70205 8.68928 -3.60002
        4.05232 -1.61432 -2.34644
        0.856792 -1.33531 1.23122
        -1.55151 -2.21389 1.3846
        2.98577 -0.851648 -1.97226
        -0.279299 0.530931 0.541889
        4.53205 4.47478 0.0241202
        -0.354069 -1.73739 -3.20974
        0.608364 -0.0233642 -0.457816
        -4.37271 -1.15368 -1.11984
        4.36111 6.63359 3.27932
        0.859193 1.97092 1.5965
        -1.42905 1.17909 3.76293
        -3.36276 1.12714 3.01287
        0.324999 -0.744673 -0.858086
        4.88253 -5.08084 -0.295949
        -4.43966 -2.35547 1.31929
        2.62804 3.60837 0.469988
        5.04545 4.13316 1.41948
        2.50226 -2.20857 2.11133
        0.927904 -0.242434 -3.18393
        2.44059 7.64787 -4.13228
        -1.80181 0.644676 1.85985
        -4.45805 2.47152 0.474329
        -2.21641 -4.81958 -3.36019
        -1.72668 -2.85042 0.358391
        0.550929 -3.32722 1.37775
        -3.35555 -2.16848 1.78731
        -2.76662 -0.423013 -4.58632
        0.329013 -4.65869 -0.903255
        0.534775 -2.59716 1.94724
        3.93425 3.58673 -1.73924
        2.0092 -0.967214 -0.28999
        -1.72393 3.62119 0.781988
        2.31524 0.105929 -3.00164
        3.84701 -7.5034 -2.42454
        1.65628 0.505144 -0.453845
        -3.97644 1.84841 -3.80642
        -5.77215 3.57249 5.21778
        3.43754 -3.22222 -0.0142006
        5.3397 -3.18964 -3.39549
        -1.25092 1.61307 -3.40267
        -3.45336 1.45459 4.94312
        0.578803 -1.96651 4.39796
        -12.3001 -4.55792 3.61384
        1.69703 2.8253 -1.30655
        -0.282376 -0.152895 -0.642433
        1.22829 -0.921973 0.999432
        2.34686 -1.42922 -2.58181
        -7.22734 1.58377 -4.08286
        1.82903 -4.39974 4.6822
        4.47844 5.38178 -2.28833
        8.8115 -2.60117 -1.02763
        -3.18331 -3.25502 -0.0786512
        -2.38956 -2.75275 5.59462
        4.81589 -0.196015 0.837335
        2.41501 0.570695 0.761067
        -3.8968 -1.36622 2.61065
        -3.46088 -5.8639 -2.93098
        -0.398823 -0.996157 4.72799
        1.48645 -0.903318 2.31137
        -0.572324 -0.854456 0.330878
        -2.34701 -0.63038 -1.30284
        -4.35152 -0.458677 1.02845
        -1.67732 1.77296 -3.84265
        -5.04775 0.978152 -1.60111
        0.440091 -3.18758 0.249711
        3.22962 3.14063 -4.54074
        -1.70028 1.6887 0.175044
        3.36734 -2.68235 -3.50023
        2.15459 5.73056 -0.091888
        -0.651099 -4.72617 -0.405581
        -3.53923 5.72317 -1.5941
        -1.90354 2.15456 -2.67089
        -3.78228 -2.66921 1.21788
        3.82096 6.24764 3.19271
        3.64666 3.82836 3.05806
        -2.51126 -4.75598 0.99325
        -6.13512 4.8305 -4.61201
        -3.14567 3.3279 10.1593
        0.650378 -0.694531 2.41954
        -3.80702 -2.30042 -1.39243
        2.70588 0.570087 -6.39342
        -1.32978 -0.667533 1.19052
        2.6938 -1.08636 -5.89839
        0.219637 1.84405 -0.595248
        4.74241 -2.18669 1.661
        0.980119 0.279508 -0.926961
        3.45845 -0.776149 0.297832
        4.93852 1.2241 2.60832
        -2.31947 0.46362 -0.0513033
        -1.96521 -0.350729 -5.52059
        -0.91232 -0.82655 -4.38617
        2.94031 3.30823 -3.75957
        -0.553379 0.679716 0.907438
        -0.869432 -2.59756 -7.06367
        -1.22706 1.91671 -1.37181
        2.1953 2.38322 4.26369
        0.822129 -2.77955 -0.271358
        -3.83723 1.62697 -0.226719
        1.68608 1.41423 -3.43821
        -2.55713 -1.08144 3.92959
        -5.58347 -1.7914 0.146372
        -3.85128 -1.81975 -1.40486
        -6.59911 4.21554 0.296468
        -4.56761 0.252822 -1.1878
        1.97379 2.45296 5.0697
        1.93813 3.42577 0.921426
        1.50424 1.65199 1.58948
        1.72889 -4.0651 2.0182
        -1.5244 -2.39669 2.25703
        -6.32669 3.67678 -5.65002
        -0.154414 5.08147 0.576634
        -0.69166 0.448297 0.411844
        -3.93408 -3.75609 0.0535581
        1.27934 7.34787 2.27296
        1.47459 -3.93869 -1.58513
        -4.64549 2.92225 2.85504
        3.89185 1.31323 3.16024
        4.65432 0.310868 -4.70839
        0.111485 4.41393 -3.52495
        -4.46541 -1.38354 -3.72444
        -0.956653 -2.02735 -2.8995
        1.39448 5.78468 -6.53705
        -0.388739 -3.07151 0.440323
        -0.650955 -2.39066 -3.06099
        -6.10236 3.36961 -0.662594
        -1.98187 -6.63262 0.338761
        1.03339 -3.76485 3.7706
        2.02399 -1.25948 2.81097
        -2.44862 -1.90976 -2.74056
        7.15248 -4.81007 1.05631
        -3.21278 3.5415 -2.4399
        3.03293 0.687432 0.971945
        2.29191 -2.13059 -0.802713
        -1.87245 0.27021 -6.09387
        0.320812 2.0313 -1.11878
        -3.55026 -1.51418 -0.288638
        0.207611 -0.245817 -5.93004
        -2.08523 -2.80761 -2.03499
        2.54762 -8.52943 3.6297
        -2.12975 -3.80348 -4.39292
        3.83222 -9.21555 2.14646
        0.943629 1.48163 -1.03946
        -1.34321 -0.927419 -0.94561
        2.31568 -4.89342 6.11474
        -0.944043 2.80682 3.81719
        2.88511 5.22515 -6.72129
        3.07978 -3.67817 6.3034
        -0.838308 0.724821 -2.42996
        1.13455 -3.31421 0.459679
        -6.49985 0.911137 -0.750868
        -5.02187 -1.28116 3.21511
        -2.33033 -3.18238 0.873333
        0.257239 1.25154 -3.24629
        -0.0575417 3.32941 -3.16128
        -2.82085 2.88998 0.767222
        -8.88362 1.77139 4.74478
        -8.35694 -3.14524 -2.11348
        -4.78272 6.0069 -4.76246
        1.71814 3.34912 -6.38276
        -2.46266 3.65184 -3.66808
        -1.65089 6.52639 -7.67596
        0.25111 3.34243 -5.38878
        -4.04177 1.6253 -3.38775
        -2.83354 -0.855514 -2.33238
        -1.87526 3.85454 -1.93213
        2.55707 0.732011 2.73507
        -4.09499 -1.54592 -3.35122
        -3.31237 -1.31724 7.59204
        -2.66844 -0.916617 0.690466
        -4.52346 1.44074 1.43314
        1.06834 0.64795 2.67371
        -4.11354 -0.2814 -0.0172481
        -5.23697 4.4428 -2.76631
        2.97739 4.35675 0.647911
        -0.0159062 -2.33293 2.1912
        -1.39307 -0.99108 1.38221
        2.00072 -1.79693 0.800661
        -1.31622 0.0421301 -2.12978
        8.7575 3.13636 0.227166
        -6.20049 3.52676 6.19293
        -1.87405 -2.27596 -0.323678
        3.75715 -0.429024 3.15876
        -6.59076 0.752493 0.337574
        -5.39873 -2.07517 -5.725
        -0.851626 2.48511 -4.04134
        6.90176 -0.923283 1.93026
        -1.04455 4.12817 -1.9993
        3.46873 2.59397 1.59894
        1.96892 0.76087 3.1815
        -3.86703 -2.3011 0.592846
        3.29671 -0.819729 2.76489
        -0.761549 -1.78363 -3.10836
        -3.30602 -0.555145 -4.43018
        -2.57977 9.04257 -3.00666
        -6.93719 0.541419 0.527828
        9.48366 3.00304 3.42124
        1.62027 -0.0960796 3.21359
        -1.37609 2.19841 1.20042
        -3.50827 0.216158 0.102863
        -5.86515 -9.41799 1.87106
        -6.89833 2.67834 2.2735
        0.249507 0.503266 -1.50659
        -3.1882 -2.45828 3.04476
        -5.89333 3.80633 0.640448
        -0.468177 -0.823387 -5.75064
        -1.61925 6.10807 1.99912
        0.52634 1.21213 1.30416
        -3.50115 0.586107 2.61423
        2.61065 3.00423 -2.98686
        -5.00416 0.363333 6.1445
        -1.72996 -6.33972 -1.75034
        1.69659 -0.45995 -1.56589
        -0.0851542 -2.94314 0.841707
        1.97317 1.66912 -3.02016
        2.64123 -0.628604 1.62965
        -3.14595 0.229218 1.44788
        3.05748 4.61137 7.48537
        -5.99189 1.86703 2.09278
        4.11002 3.79727 -3.469
        -5.42572 -4.15211 -2.3239
        1.07548 -0.493869 0.447579
        1.55317 -1.4746 -2.49514
        1.57087 -3.91789 -1.49412
        0.224546 0.593461 -3.37131
        1.25598 -0.480286 -2.63246
        2.32185 -3.65949 3.93001
        -0.586757 -7.72434 1.12216
        -2.75651 0.396853 -0.974461
        5.04702 -5.41595 0.221421
        -2.54836 1.59374 2.91205
        1.31619 -1.59576 2.58068
        3.09629 -6.22087 -2.72157
        -4.82872 0.374069 0.154954
        -4.40456 -2.79776 1.13836
        -0.867019 -1.62408 0.89036
        -0.897361 4.02925 1.79115
        1.86052 -1.7955 -2.04636
        1.90935 -0.689667 -5.50516
        -4.57336 -0.932979 -0.325497
        -0.736188 -1.53291 -1.6663
        4.1203 -7.70734 3.41135
        0.236771 -1.65228 -7.68363
        2.11182 2.28406 1.09618
        -1.81992 1.04346 1.56475
        -0.204308 -3.38297 -0.818957
        -7.24074 0.0590742 -5.62402
        -1.95688 4.74863 2.09794
        -0.822148 0.0516245 0.384637
        3.1467 0.410506 2.08485
        -6.03508 -7.11544 5.08493
        -5.90973 0.815231 3.12224
        -1.87238 8.94766 1.72688
        -1.60282 -1.93823 -1.14956
        1.21587 1.85686 -0.437789
        -7.37716 -2.03674 -0.142434
        -2.23998 -3.9228 4.37334
        -1.87116 2.22889 6.43876
        1.22879 6.63649 -2.42223
        -0.366916 0.0811378 -2.06255
        -6.76546 -0.691801 5.83229
        -1.98929 -1.25007 -2.14983
        -1.51021 3.87097 0.994057
        1.47323 1.31065 0.0491334
        -0.713113 1.61094 -4.0382
        0.977766 1.41987 -6.793
        0.191659 -1.37446 5.85418
        -6.22082 -4.07665 1.80058
        0.254698 -0.75417 -1.77407
        -1.7784 0.220228 -0.187419
        -5.6968 -4.22894 0.11007
        2.56274 -2.34498 2.05704
        -1.00773 2.23691 2.65107
        -0.462668 -3.48271 7.40171
        0.211108 -6.6463 0.113898
        -1.70252 3.41015 0.694163
        -5.89599 -1.33095 -4.98515
        2.58052 -1.73867 3.14934
        -3.1056 -0.146266 2.53633
        -0.954411 -3.19405 -1.30051
        1.45862 2.98117 -3.79598
        -5.50211 -1.0394 2.19298
        -5.26121 -1.92879 0.315132
        2.09085 -2.32709 -6.32073
        -2.11277 6.37728 -1.93737
        -2.1785 -0.961775 -3.29619
        0.819351 -4.71899 -1.97286
        1.85049 -0.67851 -0.237023
        2.75763 -2.4215 -2.7009
        -1.08006 -4.7045 1.36516
        3.76074 2.66661 -2.81588
        -1.37608 0.587282 -1.70664
        -3.15177 -2.82072 -1.71211
        -5.39804 6.7075 -2.38064
        -2.91619 -0.122037 -1.93069
        -0.245772 4.41519 -5.95208
        1.8029 -0.37908 -0.309788
        -1.01334 0.584291 1.03399
        0.630115 0.393116 3.97363
        -1.95313 -0.0905634 0.341027
        -2.12167 -0.364627 2.5983
        3.49227 -4.08862 0.067536
        -0.164873 -2.75254 -2.18385
        0.0986836 -2.10527 -2.99242
        -2.31394 -0.233627 1.36833
        0.0361804 -0.202485 -2.1657
        -3.05535 -0.262327 -2.25807
        -4.64068 -0.393832 -0.907491
        -4.82886 -2.60723 0.573628
        0.569073 1.46791 0.141893
        -4.39138 -3.05692 -2.18233
        -1.18312 2.13653 0.68552
        -1.57629 5.14779 1.76765
        1.36651 -0.235805 -2.74221
        -4.98722 -1.92062 1.28726
        3.77563 -3.43513 0.831924
        -2.33647 -0.762793 -2.60365
        -1.43616 -2.10481 -3.25813
        -3.61193 -6.50434 -2.55367
        -4.87148 0.219576 5.63344
        -7.30406 2.95518 2.2429
        -6.45198 -0.918939 4.27261
        -1.00465 -3.62277 -3.13183
        5.05807 1.70523 0.00671465
        -0.164028 -6.66405 -1.12789
        -2.26082 3.10898 0.631181
        -2.96943 2.99644 2.92082
        0.857102 1.75749 -2.32417
        0.154812 -4.56786 -1.04713
        -1.9956 -0.0410239 -0.826355
        -1.97372 5.27853 -1.17104
        -2.60474 4.07137 -1.21855
        4.70798 -4.07905 -8.81612
        -1.11536 -1.1491 -6.80622
        -0.53277 0.466341 -0.410699
        -0.792535 1.05168 -2.11774
        -1.86077 3.51111 0.209342
        4.90932 0.630946 2.67042
        4.74171 4.53074 -0.65215
        -1.45566 1.20347 -1.63295
        2.54604 6.10859 -2.05997
        -1.07025 -0.851336 -5.08256
        2.63977 1.96639 0.31587
        -4.32964 1.09844 6.20876
        0.130614 -3.13335 -3.63448
        -2.05798 -1.20577 5.78374
        -1.65446 -3.12754 -3.20879
        -2.6728 0.909199 2.30927
        1.5479 -1.36433 0.745483
        -3.10196 -3.48357 3.92538
        -2.25865 1.97935 1.49287
        1.48295 6.04616 -3.23201
        -0.750931 3.78806 0.280698
        1.93439 1.01611 -0.815682
        0.379862 0.592142 1.76969
        -1.38128 -0.501382 -2.95673
        -4.31438 -1.69506 -0.257799
        -1.49631 -3.35848 0.41518
        -1.67262 -0.88181 0.954291
        -4.58742 -0.0249907 -1.70649
        -6.15821 -2.49257 3.0197
        1.89576 -0.022516 0.119862
        -4.07576 -1.95107 0.965057
        1.19036 5.77375 1.10589
        -1.0342 -1.34376 5.69985
        -0.849189 0.123602 6.47322
        3.96311 1.23626 -4.31983
        -0.354591 6.0936 -5.07492
        -0.992845 -0.936905 2.31813
        1.75534 1.07473 -1.89581
        0.40402 0.215043 -0.0634316
        1.54747 -2.88848 -0.82917
        0.389566 1.43721 2.6987
        -2.69621 -1.91571 -1.38272
        3.30505 -1.84375 0.104358
        -3.3564 0.0535029 0.168665
        -1.95305 0.206789 3.87519
        1.49977 -0.244981 -2.07069
        -3.68423 1.90399 -0.843104
        -1.22247 -0.214156 -2.26539
        0.102375 -0.166099 -2.71494
        -5.0214 2.46484 2.23914
        -4.11545 -3.91615 -2.94392
        -1.52424 -3.30163 -0.747084
        4.80506 0.554895 1.99218
        -0.249194 1.59568 0.30987
        0.647336 0.82353 -2.06093
        1.04116 3.10925 -0.080215
        -0.4734 -6.66795 2.2279
        -2.65413 -0.07199 -1.58446
        -2.98498 1.94149 3.11936
        -5.28839 -0.580517 -1.94788
        5.03675 0.552655 4.18404
        -1.5281 -1.81563 -0.799878
        0.920576 -3.70279 -0.691818
        -3.55554 1.76567 0.349796
        -1.70939 -0.820813 -4.09612
        -1.78257 -5.27012 -1.30984
        4.92538 1.06006 -3.61581
        -0.0321429 3.03787 -1.0775
        -0.962666 3.44458 1.7894
        -2.50084 3.20028 1.62422
        2.38807 0.922231 -3.43228
        -4.29855 2.83899 1.8394
        -5.36926 3.84484 -0.266308
        -5.07623 1.59933 2.3506
        -1.11407 1.29347 -2.87544
        -2.19778 0.535697 0.187185
        0.356799 -1.59439 5.59717
        0.16384 4.42064 2.05948
        -3.12567 0.478709 1.07035
        2.58433 -1.50931 -1.27642
        0.403971 1.34925 2.25418
        -0.888073 -4.14994 1.2033
        -3.82932 -4.15968 2.07103
        -1.42714 0.2817 5.817
        2.20789 -2.10485 -1.28792
        2.31452 -7.14322 -1.8664
        -3.06059 2.40838 0.33201
        -4.59176 -0.0443034 -8.28588
        2.10912 -2.84639 5.72158
        0.0425171 5.36259 -0.400356
        0.284188 -3.18091 1.92481
        0.945367 1.02287 -1.98425
        -3.92918 2.67876 -1.37214
        -2.35733 0.266132 0.368812
        -0.274366 -4.93948 -1.44772
        -0.433729 -5.80161 3.8434
        1.48174 3.43908 1.28235
        -6.07702 -2.74748 0.252556
        -1.74406 2.95028 0.191069
        -1.30016 1.38755 -5.87777
        -0.49017 -3.32818 3.67496
        -1.07442 1.19764 1.62472
        -0.443125 -1.54891 1.12062
        0.13784 -0.495605 1.55765
        -2.83028 -1.77844 -3.00766
        -3.88036 0.491225 -4.36474
        -3.33277 3.58845 1.04463
        -1.34578 -1.19748 5.48441
        -3.19114 -2.98934 0.422498
        -1.30536 -0.531091 -1.23734
        -0.447671 4.70507 0.360148
        -4.95137 3.52552 0.103447
        -0.419681 5.76382 3.11442
        -3.08744 4.37102 -3.19924
        3.0014 -3.77894 -0.381416
        -0.806206 -1.67671 3.96659
        -0.896702 -1.38123 1.56869
        -3.45163 -1.00893 -1.4868
        -2.7162 -1.7166 -2.12962
        3.09933 -0.653474 0.946802
        -1.73187 0.136024 4.46955
        -0.985827 -0.550981 0.992525
        -1.65958 -1.58188 -3.57074
        -7.77263 3.18195 -1.31886
        4.13785 -4.85352 4.31045
        -3.14274 3.37389 0.0290579
        -0.0394539 0.731047 4.03641
        -0.815518 -0.195537 -1.24551
        -2.25068 1.67137 0.868501
        -0.682328 1.5226 -0.172073
        2.21377 1.80615 2.66022
        -2.46242 0.0905651 1.93596
        2.8503 -1.65809 -3.42652
        -0.377661 0.793044 2.50457
        -2.51012 1.34311 -2.23583
        4.88691 3.43084 -3.23389
        -3.28526 3.80768 -2.05353
        0.515561 -0.149919 0.79359
        1.25839 1.02744 1.54333
        1.08756 -0.682807 -7.05161
        2.20457 0.691963 -2.53303
        1.71211 -3.20353 2.34079
        -0.602468 -2.65409 0.263491
        2.56161 4.25985 -0.431355
        0.0133952 3.48603 0.858885
        -0.192352 -2.0717 -7.68252
        -2.67497 3.01839 0.342508
        -4.67453 -1.84753 1.98431
        -0.933643 -0.898684 -0.871063
        0.483012 1.1259 0.514192
        -4.84311 -0.469608 1.24045
        -0.275508 0.172653 5.50003
        2.98596 -1.82637 -7.09073
        1.80215 0.252846 -0.731737
        -1.72189 -1.87463 1.6276
        -1.24575 2.17657 -0.148851
        -0.469488 -8.67277 0.3351
        -1.38218 -0.75534 -3.12407
        3.17647 -0.820002 0.541195
        2.86029 -2.45225 4.04374
        -0.925536 -0.967887 0.505377
        -1.5882 0.747135 4.68339
        0.296364 -5.24773 -0.5883
        0.466326 -3.27124 3.73353
        3.40665 2.80888 -0.463061
        1.11311 -1.80864 -4.44734
        -2.4862 -0.999846 0.420146
        0.442261 -3.05077 -0.872685
        2.72491 4.98363 -1.59168
        -3.49349 -3.36631 -3.87078
        1.17324 -4.0656 -0.2131
        -0.925759 -3.31524 0.0437629
        0.326249 -0.650555 0.404735
        -0.724145 -0.480837 3.32462
        0.311024 -5.02697 -2.26673
        -0.195146 -0.546428 0.745762
        -3.55512 -1.17524 3.46021
        0.873955 -0.739936 -1.59499
        0.108801 3.32109 0.231302
        0.74901 -0.643304 0.93296
        -4.88109 5.22745 -5.54443
        1.26208 6.58123 -0.72578
        4.23272 -1.82007 3.19193
        0.665076 1.99718 -2.3925
        2.0013 1.95712 6.32474
        -1.64297 -2.30129 -1.60621
        3.09849 -0.5934 2.13563
        1.74111 0.448054 -1.17029
        -1.64288 -2.14933 0.936107
        2.48761 3.14676 -3.91904
        -1.13282 0.0760406 3.0534
        -0.38265 -1.16908 -3.39897
        0.86346 3.36439 4.49758
        7.40703 -2.38327 -1.59116
        1.6889 -0.452163 1.80207
        -0.430294 -2.68206 -0.489822
        2.99745 -1.37096 8.06739
        -0.46867 5.99207 -3.77892
        1.63613 -1.42036 1.71447
        -0.23672 9.84509 -1.77378
        0.680301 -5.60815 1.92154
        -0.353839 1.47848 -4.09015
        -1.0674 -0.711601 3.03284
        4.71607 -4.91103 1.97354
        -3.77764 1.00018 0.866801
        2.403 3.97192 -1.11067
        2.98855 -2.43654 0.320613
        -2.1141 3.07684 5.43093
        -1.5127 3.27142 -1.59471
        -1.14715 -0.411494 2.25421
        0.43604 -5.73307 -2.3447
        -4.54631 3.29705 -2.29062
        0.453256 -4.7153 0.906589
        3.23505 2.33067 -0.349721
        1.59244 -0.956725 -5.55564
        2.18729 1.00465 3.00088
        -3.11698 -0.341301 -1.83289
        7.30533 -1.09323 4.57576
        -1.6615 1.43688 -1.92026
        -7.85736 3.87271 1.31367
        -1.22237 0.955258 6.09538
        -3.68735 -0.513255 -9.27666
        -0.843386 5.80912 -4.33699
        -0.993539 3.77053 1.95771
        2.33717 2.71511 0.250255
        -4.43521 3.27132 5.48285
        -2.85147 -0.0587115 2.36804
        3.52321 0.196311 1.24836
        3.44388 -3.18838 -1.14117
        -2.97533 -3.61945 1.06286
        -1.07836 -4.58796 5.49927
        1.53824 -3.86318 1.76409
        5.86085 -1.27593 -0.68575
        -1.32062 1.00272 3.12281
        -2.39225 -0.0481476 -2.49749
        1.13534 2.83309 3.21809
        -0.448807 -0.555031 1.77378
        -1.19103 2.122 5.10662
        -0.630718 3.74664 -1.80422
        -2.1939 5.95214 3.66557
        -2.22761 1.34192 1.59263
        4.21084 3.70795 3.74276
        -2.18353 2.03965 3.81265
        0.246266 -0.0729302 2.12308
        -5.11677 -0.296093 -1.66516
        4.31465 0.959206 5.28467
        -1.84187 0.433275 -4.39375
        -2.1552 -1.23829 -7.49552
        2.91729 0.0464147 -2.13384
        3.12497 4.36428 -2.71393
        -3.31341 -1.12947 2.3879
        1.549 -6.71236 -0.510543
        -0.0212284 -0.394671 -0.267656
        -1.23555 0.803817 2.45179
        2.11364 -0.100987 -1.72847
        -1.14103 1.30694 3.90461
        -3.46184 -1.45873 2.51146
        -2.47343 -3.36042 1.22201
        0.976091 -3.42968 0.561912
        -0.0457678 6.33005 2.84348
        -1.56697 1.39175 0.906681
        -6.63704 -4.05703 -3.40692
        4.8727 3.27028 3.61231
        -6.31038 2.17948 -0.248808
        2.43515 2.81795 -0.290741
        0.915264 -2.21437 0.924966
        0.743579 1.99202 -2.89194
        -0.226835 3.27622 0.863216
        4.99644 -2.76279 1.58168
        5.77889 -0.435787 -6.21302
        -6.89619 6.17242 -0.161524
        4.55517 0.381984 -2.18065
        -0.349407 -1.54356 -0.611304
        7.94559 -1.47378 6.67552
        0.883086 -2.01072 1.06424
        -3.83485 3.70481 -1.78448
        1.51055 -0.529695 -0.26018
        2.73473 -3.81097 1.32726
        0.179738 -4.48667 -1.16098
        -1.22485 -2.8359 0.033954
        -0.149216 2.92744 -0.745995
        3.83021 -5.88809 -2.51641
        -1.33379 1.49135 -0.508882
        -0.88236 3.95396 -0.605797
        -0.571622 2.59554 2.28684
        3.37976 0.463256 0.148976
        5.13658 1.6025 -2.56639
        1.40544 -3.51672 1.88454
        -3.1953 3.53226 -4.91301
        2.1135 -0.00445102 1.8176
        2.55732 -3.13724 -1.67846
        0.315069 -0.712328 -5.54646
        -2.86163 2.73953 -0.664726
        -1.37854 3.29827 -5.22349
        -3.66333 -1.77595 -1.81594
        4.45303 -5.28191 -3.27353
        -2.57809 -4.85764 -0.0614376