<?xml version="1.0" encoding="UTF-8" standalone="no" ?>
<VTKFile byte_order="LittleEndian" type="UnstructuredGrid" version="0.1">
  <UnstructuredGrid>
    <Piece NumberOfCells="0" NumberOfPoints="15094">
      <PointData>
        <DataArray Name="velocities" NumberOfComponents="3" format="ascii" type="Float32">
        3.50492 -4.31806 -2.45336
        -0.903848 2.31787 1.09791
        2.41845 -0.420191 2.45306
        4.0145 -0.54954 0.688832
        2.08912 0.302418 2.2036
        1.95692 -3.72145 0.691858
        -2.45609 -1.93856 -1.6418
        1.64034 -3.8398 -4.14073
        0.828234 2.19393 3.21327
        -2.10115 3.87969 -0.198705
        -2.7675 -7.8605 -1.91841
        -3.24558 6.74687 -1.33881
        -1.8069 3.50279 1.81822
        -3.01876 -2.92294 -2.45411
        2.36239 -1.82731 1.58379
        0.0682544 -0.132174 -1.48914
        3.30817 4.01542 0.540718
        2.80238 1.72995 2.10116
        -0.585839 1.32935 -0.303702
        -0.273764 3.96328 0.269445
        8.12486 0.517535 -2.6546
        -2.16159 -2.30691 1.84251
        0.213541 6.80553 -1.85923
        5.87191 6.88155 -0.0632833
        -0.2659 4.31407 3.23836
        -4.96371 -2.5376 3.8328
        -5.47773 -3.44564 1.79031
        2.62127 2.07931 -1.74813
        0.0407521 3.57914 1.73323
        1.28826 -5.53606 5.69833
        1.44416 3.43078 0.690907
        -6.52599 0.846014 -3.50591
        2.02583 2.46813 1.76042
        -7.07388 -4.11631 -3.84736
        0.870727 1.04812 3.42686
        0.233038 -2.94361 2.33043
        3.44417 -2.43888 -2.33775
        4.83376 1.5824 0.0453663
        2.44986 7.01376 0.558266
        1.95274 1.29737 6.11854
        3.89937 2.44275 3.25076
        0.425601 1.62798 5.64857
        1.24792 3.70052 0.598785
        4.1718 1.32232 1.59162
        5.5451 0.291164 3.45493
        2.61104 2.56338 -7.49726
        -4.65054 -0.737293 -5.032
        1.48053 -0.245168 -1.42876
        -4.8571 -1.89064 -4.68533
        -3.64396 3.1592 4.81338
        3.9168 4.96998 -4.47819
        -1.60719 3.58922 -2.18653
        -0.414625 -3.30915 0.475326
        1.59731 -5.41706 -2.61168
        -2.72397 0.0991833 3.02167
        0.887749 0.436096 3.39389
        -0.69333 -1.60602 -0.853368
        0.254876 1.17624 -1.81717
        1.32699 -1.37637 1.30785
        -1.75205 5.45889 -6.69721
        0.49607 1.40652 5.04763
        0.267604 0.646987 -0.688043
        1.88614 -0.465341 2.49199
        5.99687 -3.79157 -1.03552
        5.56881 1.3468 -2.67486
        2.17499 -0.780886 3.17782
        4.85402 2.11677 4.10476
        -1.73625 3.3766 -0.613311
        -5.50604 -3.00257 -2.57043
        -5.03017 4.37787 -0.537143
        -0.944971 5.68825 -0.268713
        -3.19189 3.87399 -5.11925
        -1.32177 0.77118 0.257752
        1.2483 2.79596 -1.17451
        -1.58112 -2.65454 1.15971
        -0.115542 -3.20193 -1.7703
        -2.31586 -1.69185 0.742444
        -0.593749 -1.47234 -1.4927
        -3.10927 -5.74807 -0.396042
        2.62784 -0.908434 1.35973
        1.88909 1.94442 -3.00275
        0.786624 4.71082 1.74111
        1.51585 -4.89522 1.81539
        2.19545 0.658912 -0.722316
        3.64695 5.50623 2.43611
        1.57083 4.68236 2.17391
        -1.3959 0.340895 1.69842
        2.07102 1.19013 -0.225449
        0.63716 -0.694923 -2.6101
        4.63487 3.23867 -3.19365
        2.83743 1.12015 -0.0525652
        -4.15039 0.335719 0.145228
        -2.04386 3.66825 -1.12126
        -2.38349 -0.0722318 -4.38267
        0.993851 -4.24867 0.651853
        -3.20084 3.72569 2.19609
        2.01017 -6.93147 2.0411
        -1.74452 6.67359 -2.07899
        -1.84034 1.76151 0.701312
        -3.50135 -0.531383 1.4437
        -1.96483 -0.69183 0.991701
        -1.61908 1.10394 -1.30634
        0.61025 4.73032 2.1878
        -2.09984 2.53076 2.15491
        -0.361676 4.5775 2.56613
        -2.55979 -3.95768 0.998144
        -1.06246 0.476883 4.95701
        5.60746 -2.87133 -1.72836
        2.79534 -3.30128 4.02691
        1.09507 -1.86499 -3.75599
        0.541685 1.81954 4.18878
        1.80548 0.820191 -0.889095
        -4.6556 -0.684674 4.32853
        -1.73511 0.662386 2.53348
        -1.11978 1.03768 -0.759263
        1.82366 -2.73602 3.4052
        0.898644 -0.596217 -3.15076
        0.668112 -2.44259 -0.578384
        1.39169 5.31158 -0.820099
        3.28741 6.12576 -4.72395
        7.21098 2.58014 6.3266
        1.32001 0.269336 7.10906
        0.80403 2.33767 -0.379967
        1.83258 4.00873 -1.65859
        4.28467 0.19972 -0.451423
        2.78492 4.23644 1.36498
        -3.48392 -2.72237 -1.16272
        -1.02154 2.74611 1.21757
        2.80785 0.158482 -1.56362
        -3.53469 1.05623 0.57142
        3.1702 -3.26952 2.16579
        0.233879 -3.21242 0.0255212
        0.651478 -4.33123 -0.804002
        -2.78375 7.2867 5.76474
        2.62813 -1.12581 -3.53171
        -1.84803 -3.66537 8.28981
        2.82374 0.994862 2.10342
        1.82289 2.43534 -0.362902
        -4.37677 -2.18754 0.0849266
        1.10112 -3.62705 0.408709
        -0.712889 2.18134 -0.663894
        2.11134 1.77214 -2.48046
        2.13796 -6.44898 0.534501
        -1.31662 -6.4641 -1.49912
        1.06717 -8.46434 2.89967
        -3.04388 -1.55363 -1.72313
        -5.14471 2.55078 7.83424
        -1.85608 3.37992 4.10822
        1.69079 -1.43557 3.60172
        -3.50091 1.30096 -1.50411
        2.28959 -1.85575 -0.455979
        0.192649 -2.08374 0.957763
        5.45536 -1.87148 -5.27077
        0.83282 2.08172 1.9886
        2.21726 -1.9014 0.346908
        6.06514 2.7861 2.27524
        -1.05914 1.42126 6.01514
        4.52677 -0.316347 1.62731
        1.55971 -1.93147 0.636193
        2.75727 0.152436 0.959957
        0.93923 7.56547 -2.1453
        1.89507 -1.352 -4.51639
        -1.1878 -3.56232 -3.15191
        5.44942 0.685684 0.0449737
        1.01533 -2.68134 0.628319
        -2.47284 2.3301 -3.02524
        1.52518 1.16918 6.87575
        3.96914 3.40518 -0.896555
        -3.51931 2.67854 2.06475
        4.19421 -2.55953 2.56574
        -0.787516 0.172611 -3.70451
        3.60412 2.94624 1.03545
        4.47339 1.31781 -2.90724
        0.182336 1.50161 0.995793
        5.77657 0.858333 -0.952123
        1.67598 -6.31832 -1.2286
        2.97031 2.85422 -0.923971
        -0.113248 -3.69721 -0.969143
        -0.464248 0.524275 2.66896
        0.393095 0.62448 3.63663
        -2.53134 0.839648 6.81361
        -1.79147 -1.74245 -1.74201
        1.28791 -4.28578 -0.00753194
        -5.25083 -1.37423 2.92285
        3.35416 -2.99454 2.58529
        2.80415 -1.2651 -2.25967
        -2.37813 3.38584 3.42712
        2.99136 -6.73181 -1.18961
        0.297605 4.75893 4.42786
        1.08798 -2.53351 4.30926
        -3.01653 2.57783 2.2116
        7.88546 1.61124 1.66227
        -2.49528 -0.716929 -3.01414
        2.10131 -6.17949 3.07897
        -0.581558 -3.98035 1.53459
        -2.65663 -2.76987 1.94265
        -0.302571 -0.309233 -0.618585
        -6.36934 -2.9766 -2.91459
        -4.21238 -1.10066 1.76656
        -0.433924 3.32267 0.897025
        4.15369 -5.52094 3.20767
        -2.02262 3.84681 0.560489
        5.05271 -4.40636 0.841637
        7.52543 0.0443415 -0.818019
        2.16102 -4.32915 2.29154
        0.470794 1.88867 -1.02054
        -0.431329 -1.4674 -3.59625
        1.83444 4.36632 -1.69968
        4.59212 -0.815163 1.58896
        0.623094 -2.92824 5.17446
        -1.50378 2.58243 -0.530303
        2.77358 -2.06429 2.75015
        3.44302 6.68636 -1.54797
        4.86718 1.71806 -0.337923
        3.99153 -0.631492 -1.80583
        -2.80324 5.63874 5.50026
        5.31957 -2.97702 3.73723
        2.12307 2.57662 1.05366
        0.678776 0.768273 0.612296
        3.23386 -0.940399 0.342554
        -1.12719 0.735254 2.45349
        1.4223 1.14596 3.14784
        -3.72394 0.394131 -4.27491
        2.54948 -2.38412 -5.50629
        -3.72633 -1.25327 4.01546
        0.386587 -0.645609 -2.44143
        -2.01296 0.460316 5.35319
        -2.83841 -2.36211 -0.326421
        1.59661 4.55486 0.554638
        0.096486 3.324 -2.83871
        -2.40359 -2.0911 2.15206
        3.5551 1.25744 -4.80548
        0.77622 3.42044 -1.52765
        2.27667 2.43587 2.02867
        4.92149 -1.23572 -6.79931
        -3.3572 -0.585639 1.24453
        3.36339 3.48225 4.48972
        0.358233 4.56438 0.263037
        4.21164 -5.09147 -0.224107
        -0.6647 -1.04443 -3.81299
        3.26066 2.58234 -1.18503
        2.56685 -1.48988 -1.79357
        2.76645 -2.99424 2.08859
        2.12226 4.24842 -1.50897
        2.27819 -3.06911 2.50788
        0.546783 -0.956201 2.45704
        -2.13039 0.760786 0.124866
        -1.74206 3.15993 2.00195
        2.34326 2.40296 0.948143
        0.183971 0.34771 -1.36063
        0.305049 -0.196848 0.89768
        -4.50962 2.36988 -0.713658
        -4.97495 3.67009 0.353967
        7.31725 0.589783 5.04859
        -0.0672339 -2.16891 1.99143
        -4.26145 -2.32928 -0.135131
        0.338921 -1.15702 0.0951109
        -0.141037 -2.55899 -2.05462
        6.04912 0.233422 -2.10245
        5.46844 -1.33526 -2.60489
        -1.295 -0.764301 0.321263
        4.33067 3.66772 -1.418
        0.618588 -0.0864196 -2.38173
        -1.51386 -2.58802 -0.429028
        3.75565 -0.66105 -1.01816
        0.849037 -0.950954 0.297773
        0.581349 2.81809 -0.426162
        6.59588 -0.107769 0.402861
        0.0720039 4.88716 0.412252
        -0.631051 6.37315 4.02797
        -3.20686 -0.666347 3.40807
        -3.21596 2.97933 1.19427
        -0.291362 3.641 -1.12726
        3.42929 1.05162 0.429006
        -0.209469 -3.62255 -2.21619
        -1.1618 -1.02388 -0.598406
        3.77292 5.25816 -2.13795
        -3.23755 -0.639967 2.30865
        0.507115 1.27787 2.22037
        -0.00780753 1.75224 0.801246
        -1.37399 -1.07098 7.94332
        0.254097 1.7789 1.76079
        5.24343 -0.381383 2.68203
        1.53975 1.33502 3.70065
        3.11268 -6.04421 5.19047
        -2.72511 -2.12741 -2.02797
        0.0989269 5.86818 3.13726
        1.90326 1.70556 -1.30339
        -2.66273 -2.59393 -1.7771
        4.9966 2.86877 6.82424
        -0.106647 1.63026 0.641472
        -3.71935 -0.028002 2.38501
        3.65731 -2.82067 0.945132
        5.31454 -1.12345 -3.88876
        -1.72207 4.75268 6.59892
        -2.01884 -0.620212 4.58828
        1.02126 3.22087 -1.78098
        3.50072 1.25125 1.46947
        3.33278 -1.46132 0.997685
        -2.42138 -0.67927 -1.77938
        3.30866 -0.450172 1.5538
        -2.34317 1.41181 -1.00351
        2.95507 1.35395 1.47845
        0.857276 3.93261 -3.09328
        -0.0571374 -2.00859 -0.0358361
        -1.55871 4.21903 0.647886
        -0.979517 1.65257 -0.185516
        -0.660037 1.49681 -2.07741
        -6.24595 5.14091 3.15422
        3.50541 2.99643 -3.106
        -1.37207 -3.19593 1.68565
        2.23363 2.77651 5.60248
        -1.56447 0.415473 -1.45984
        3.33306 1.1472 1.09131
        3.28242 1.50803 3.62897
        -1.62125 -3.59135 -1.15994
        4.95866 -4.05574 0.107443
        -1.65562 2.58665 5.47276
        -0.723644 -0.78564 2.38542
        -1.23565 -1.81881 -0.764151
        2.98753 1.78517 -3.09427
        2.11646 -0.414084 1.10248
        0.287623 3.14259 -4.25403
        2.88572 -2.43567 5.11603
        -1.91169 -3.44264 -2.83464
        -4.26592 1.59085 2.21485
        -1.70824 -1.45536 -2.42915
        3.43401 1.21013 2.41533
        -2.09736 0.119396 0.289165
        -2.83479 0.760377 -2.92212
        2.70006 0.921298 1.64934
        0.558139 0.465987 -0.743855
        1.78642 0.64597 -2.51321
        0.256427 -2.26214 6.27481
        1.08487 1.5275 -2.48178
        -0.75979 1.75981 0.788627
        5.69763 0.659457 -1.89101
        -4.05361 1.45461 5.41856
        -4.84941 -4.11909 -2.73741
        0.514963 -0.706861 5.13935
        -1.43815 3.64236 -0.31215
        3.75073 1.29341 -0.888643
        -2.56072 -0.203087 -0.732778
        2.03237 0.553815 -1.80571
        -2.73385 0.0276537 0.221916
        -3.98368 1.42665 3.82669
        -0.782466 -1.01125 -0.242905
        2.73073 -2.0397 1.05693
        -0.919395 -1.73397 -0.726882
        4.09007 2.75731 0.052201
        -0.436073 2.50392 0.616849
        2.05209 2.5489 -1.19245
        -1.83792 4.82726 -1.59658
        1.58339 -3.39698 -1.10002
        -3.58436 -1.19809 -2.21149
        0.160564 -1.52715 0.467943
        -1.54593 -4.00234 -3.92197
        -0.245779 -0.86265 2.07132
        -2.31253 4.50287 4.38341
        -0.765995 1.5258 7.23558
        0.460915 -1.03974 1.98602
        0.730315 -0.719064 1.70649
        -2.29022 1.23478 0.232144
        2.3656 1.56017 0.388728
        3.20881 1.29551 1.30908
        2.33415 2.9325 0.273705
        -1.42721 3.76113 1.37826
        4.74254 -2.34428 -2.29955
        0.0445629 0.877954 0.112437
        -5.63338 0.531578 0.446791
        -1.85272 3.5785 -6.7744
        0.384985 3.47278 5.41751
        -1.78372 2.04895 0.661488
        -0.333791 -2.00033 2.51879
        0.0977775 2.34821 1.07517
        -3.12466 0.98171 -1.23932
        0.167691 1.06324 -1.21338
        -0.0497501 -4.78085 1.14758
        -0.636003 1.17009 -0.0702381
        -2.60056 2.30587 -1.20736
        3.94207 -0.955706 -0.864771
        -0.422366 -3.16741 0.070978
        -0.317248 1.81893 0.902797
        -3.40094 -2.99288 -4.82206
        0.797444 0.792118 -4.8987
        3.92057 3.47948 1.59605
        0.687999 4.0304 -2.06904
        -2.04639 -2.86529 1.7407
        6.90392 -0.803298 0.524906
        -1.34 -1.85685 -0.825943
        4.04522 -1.55874 2.34811
        0.869351 -1.86258 4.32549
        5.79333 -3.68101 1.31859
        1.98642 -2.69134 3.02403
        4.16551 1.55137 0.0281478
        2.58021 0.416974 0.890077
        0.754055 -3.16842 5.62436
        2.48302 -1.32911 -3.05785
        -1.05887 0.774936 -4.06777
        2.10281 -1.06686 -1.18018
        0.399238 1.37364 3.36217
        1.67682 -2.72073 4.82174
        2.1876 0.67077 1.16493
        -1.10445 -0.386452 -0.0763371
        1.62209 0.386508 -0.435607
        0.442368 3.9536 1.07493
        4.19711 -4.26779 3.06805
        4.11323 4.24287 -1.32978
        -0.138281 1.30408 -3.68058
        0.525711 -3.54515 2.115
        2.05393 1.98778 -1.94436
        -0.172847 1.55094 1.78609
        -1.00823 -0.104155 3.04501
        -0.686484 3.53152 -1.64387
        -1.30798 -1.88396 -0.42691
        -1.13921 3.9059 -2.23295
        0.304545 0.136165 0.895478
        -1.68172 0.41106 -2.22384
        1.59904 -1.34655 -4.43608
        -0.457555 0.912499 1.14378
        -0.57387 2.29767 4.89825
        2.20581 0.391453 -4.53778
        0.637831 -1.11175 0.779364
        2.48315 1.74498 1.84541
        -4.15243 2.38448 -1.50407
        -0.694072 0.0916333 -0.526583
        -0.128435 -0.547507 -1.75168
        3.29765 -0.961038 -0.154453
        1.15065 -1.88315 0.484434
        1.60012 0.9609 1.56683
        2.00083 2.96426 -0.397438
        1.10226 -0.235654 0.425544
        -3.64201 -0.286823 3.94156
        3.78044 8.28646 4.19189
        0.333144 -1.46236 1.94663
        -2.03038 -4.18573 3.09858
        -0.245259 -2.69271 2.06954
        -0.919041 3.18335 -0.851835
        5.62623 -3.7284 1.0842
        -1.25738 -4.95945 -2.93227
        2.41802 1.47328 -5.83033
        -0.856834 0.260514 -0.687986
        2.95579 0.247184 0.0848463
        1.06404 -6.07943 -3.1445
        0.44052 2.24149 4.30688
        5.62957 3.88211 -2.67087
        1.17217 1.5724 -0.0365703
        0.523473 -0.0846016 4.37903
        1.579 1.3276 0.197307
        3.91522 -0.972151 -3.74318
        6.08132 -1.56204 -1.33826
        2.08596 -0.549553 0.223895
        -1.76453 -4.02592 1.12707
        -1.26514 1.3354 -1.84269
        2.72649 6.63454 -0.567472
        0.944555 1.91367 -2.73141
        5.51692 -4.0138 2.19246
        -4.905 -2.92622 -0.986229
        1.53172 -2.72891 5.37673
        -0.754866 0.968341 -0.224424
        -0.158196 -1.23051 0.585249
        2.75189 1.23795 -6.28917
        0.967466 -0.024279 3.71494
        4.35095 2.64078 -2.78408
        2.45485 2.83572 -0.426519
        -3.957 -2.33505 0.502301
        -2.07619 0.720927 -0.0321324
        1.79552 0.536118 1.53482
        1.15137 1.06969 3.1474
        5.38052 2.78441 0.0188441
        1.66152 -1.73148 -0.539053
        -1.66426 0.241225 3.61335
        1.2864 7.26806 0.570818
        0.974624 0.340821 0.694565
        -2.08706 -2.88992 -4.08249
        3.4748 -0.285963 2.20967
        1.54691 -1.93055 -0.389126
        3.87687 2.46372 3.27804
        -3.64338 2.15207 2.11264
        1.70048 -1.34427 -1.82956
        -4.87619 3.34919 6.02975
        2.53306 -2.96794 0.235499
        -1.00249 1.3819 -3.47841
        2.22475 3.46884 1.9154
        3.04877 -4.51313 2.02764
        4.89818 -1.47277 -0.975219
        2.53634 0.770255 2.88565
        5.24731 -3.35115 0.412056
        -4.0399 1.92011 2.61705
        0.929175 -1.03835 2.51087
        2.95953 0.806105 -1.66132
        -0.975604 2.26506 5.64556
        -4.04166 4.31628 1.31502
        -6.14246 -1.16924 -1.87157
        1.70206 -1.32068 1.81451
        3.65239 2.02789 -2.34351
        3.86971 -0.033052 -1.43371
        0.853091 -2.19354 2.86553
        -1.24626 -0.437135 -0.431722
        0.840593 -0.0412819 1.98671
        3.45101 7.46532 1.83695
        -0.0652686 0.592403 -1.31977
        1.33301 1.19588 0.890133
        -1.64421 0.265323 3.00501
        0.17523 -0.177922 0.712762
        -1.44825 -0.247691 1.66599
        -2.88452 1.46329 -2.74157
        -0.329673 4.77657 1.49191
        3.68137 -7.40203 -3.50141
        3.53991 3.29163 2.50079
        4.11205 5.41615 2.3707
        4.34021 -2.27234 3.27862
        2.75589 1.8688 0.114347
        1.58289 -2.65106 -0.216838
        -1.7778 3.06844 -1.22705
        3.78908 0.633577 -0.221829
        0.223775 -1.11827 0.344684
        5.58511 -2.90898 0.265694
        -0.995675 1.56345 -0.752042
        5.99194 -2.65994 0.214813
        -0.750242 0.847679 2.71592
        2.6679 -1.44648 -1.59557
        1.93958 5.85139 -0.203681
        1.31563 0.419219 -1.60104
        -1.1383 -4.89163 2.0512
        -2.47162 1.64089 -2.93074
        7.12299 -1.603 0.809394
        0.951174 -0.861187 2.23094
        0.126803 0.997344 3.37251
        4.79145 -1.92645 -1.89308
        0.608434 -0.0866557 -1.01957
        -0.827185 1.18119 0.983192
        -0.464501 0.244585 2.27564
        -0.336504 -2.63315 0.897326
        4.16419 0.882789 2.55496
        4.4684 0.975947 -1.0093
        1.22783 2.36637 -2.22648
        2.5428 -1.17084 7.55419
        3.6782 2.85834 1.35434
        3.07097 8.12019 -0.915198
        3.19205 -1.62273 1.03124
        1.03654 4.86571 0.960612
        1.07666 -0.473556 0.51236
        2.23921 -2.33893 -2.0159
        1.70242 3.09601 2.19787
        0.187583 0.794823 3.37113
        0.230261 0.372145 0.53327
        1.70931 3.45683 0.837825
        -0.0526628 -4.80202 -0.773522
        0.970732 -5.56201 0.50538
        -3.8678 3.61813 1.24016
        -1.25603 2.81524 5.38657
        -0.189998 3.97536 -3.07485
        1.96248 -3.23679 4.07524
        -0.744812 -0.653583 -1.63625
        -2.52734 2.27924 -0.220655
        0.720262 -0.154417 0.197849
        3.8444 -1.95994 -0.317531
        0.77501 4.96034 -1.31211
        -0.9388 -0.683077 0.831781
        4.58313 1.12354 -0.834916
        5.2043 -1.62553 1.98911
        0.754897 -3.17461 0.905956
        -2.78517 1.26028 -1.86271
        0.712469 1.62739 2.82209
        3.49419 0.676515 0.151856
        1.24687 0.0926487 4.31249
        6.61842 2.92268 -1.28138
        -0.40182 1.63868 3.34997
        1.68075 -0.204764 -0.587808
        4.1118 1.12912 -1.51967
        3.70442 4.18776 2.31288
        2.53379 9.26401 -2.53437
        4.4416 4.31195 -2.81688
        -0.377719 -3.69858 1.61839
        8.05277 2.64054 1.31456
        2.419 -3.13221 -0.00202484
        1.36833 2.028 -2.98644
        3.68741 -1.59914 1.52313
        -2.19147 0.494651 0.550088
        0.630369 1.33897 1.57118
        0.873272 -2.46526 -0.893728
        -3.55723 -0.18991 5.13057
        0.32138 1.97018 1.42285
        4.25826 0.697667 5.7173
        2.33356 2.50966 -1.79709
        -1.79475 -1.03663 -6.49651
        -0.0716394 -1.16443 -0.0706351
        3.55505 0.702469 -2.66231
        2.26604 1.44036 3.21273
        0.789156 -0.510144 1.75849
        0.972096 2.10084 -4.64576
        3.7924 0.3539 1.88913
        2.07889 -6.03666 -1.07454
        5.87054 0.573301 0.0540371
        0.391601 -3.29758 1.70768
        -0.2211 -1.27754 -2.09009
        1.6438 1.00734 3.96038
        3.49077 1.92542 -0.302231
        5.14339 2.25491 1.75425
        4.49793 -2.20329 0.0600327
        -0.112422 6.89583 -1.43753
        3.6096 -0.594396 -0.993229
        3.19704 -0.116539 0.772222
        0.226157 0.0390592 -1.69705
        -0.888056 -3.55142 1.51422
        2.3506 -4.00433 -0.176343
        6.89057 -1.27143 0.245584
        5.65525 3.68496 -3.29075
        4.06184 0.0572735 1.16392
        0.0353742 -0.00319577 -1.05315
        1.51778 -0.748807 -2.0955
        5.26274 -0.483691 -6.59509
        6.79491 1.78587 3.12824
        1.46787 3.86148 1.93881
        3.08379 -3.18927 3.74206
        2.99703 -2.98536 1.68724
        5.32878 -0.447062 -1.77327
        1.91694 -1.57197 2.9278
        2.61408 3.36045 2.78282
        0.909726 1.91399 -1.11829
        -0.84515 1.7687 -2.81314
        1.39946 1.0676 -3.5654
        1.41994 3.01782 1.034
        1.32183 -2.78549 5.56944
        7.202 -0.272699 -2.15986
        -2.27384 6.32243 -4.48225
        0.306292 -0.402367 2.96082
        2.95814 -2.06156 -0.213296
        -0.569758 -0.776955 0.75912
        -3.39566 0.00359576 -0.250808
        0.166589 1.46697 3.10234
        -0.807651 3.74825 2.93917
        -0.433254 4.59813 4.83559
        3.37666 -3.06115 -0.0578716
        2.18974 -0.0895934 2.4418
        2.45371 -5.08881 -2.53733
        1.05293 3.67042 5.84991
        -3.60367 0.647474 1.67714
        2.45559 3.01673 -0.0303601
        -0.424579 -0.944473 0.207489
        3.26372 -0.285742 -0.307247
        -5.55549 -2.0915 1.18923
        0.315852 0.00139045 -0.146358
        5.87457 -4.79167 -1.72368
        3.47194 -0.745694 4.87052
        0.499592 -0.740144 -0.775865
        1.1541 2.83739 3.88331
        -0.60791 2.21825 -0.343089
        -1.13509 1.66936 1.87982
        4.85451 -1.49577 -1.41082
        1.90125 -1.62734 0.709988
        5.21514 2.10138 3.01763
        3.95116 0.430708 -0.850614
        -0.552676 0.658558 0.987865
        1.08084 2.47137 -1.40212
        1.79063 1.11499 4.39322
        2.67734 1.41846 3.31283
        5.49032 -1.41443 5.75891
        1.71886 5.34059 -0.175671
        -0.688225 -2.9167 -3.877
        2.72056 2.34214 -0.437838
        5.51412 -3.11443 -3.50721
        2.45713 -1.31285 1.68152
        -0.18534 -2.39971 -2.16991
        4.59944 2.93928 -2.15649
        4.35093 1.5112 4.95401
        1.39356 0.331691 0.367523
        2.57058 1.67301 -0.296381
        2.08004 -1.36427 3.90204
        1.89204 -0.483675 3.75142
        4.46604 3.69513 -0.77241
        0.777569 0.313002 -0.783696
        0.915548 2.49955 -0.613003
        0.55982 -0.705543 -0.888981
        -1.1572 0.119318 2.75211
        -0.416268 5.71047 0.151616
        0.102967 0.636441 0.232137
        -0.132074 1.54599 -0.707815
        5.80854 -0.914385 0.543951
        2.32187 2.26596 -1.87818
        0.45401 -2.4309 -0.0806884
        0.410501 0.510625 4.8815
        -2.1624 -0.66283 -2.35174
        2.60293 2.56621 0.155347
        -0.612882 -4.22851 -1.95811
        1.53149 -0.235109 -0.202193
        2.24824 -0.520859 0.283932
        2.67521 -7.70249 -1.40233
        2.82243 3.73962 -3.40647
        0.984657 1.7118 1.57712
        5.64641 5.15424 0.71801
        -1.88886 0.34682 -0.6004
        4.91917 0.765105 2.33587
        0.430295 0.645075 -1.29063
        2.35346 0.780784 -1.5133
        5.59242 -3.32206 -2.86651
        -3.93549 -0.409817 1.45632
        1.80773 2.30421 -0.0950136
        2.32756 -4.56381 3.60936
        4.30622 1.89338 -2.12819
        0.151648 -2.58498 1.84068
        -2.05857 0.0679206 -3.69885
        -1.5271 1.45026 -1.37609
        0.971642 4.87683 1.41147
        0.215296 0.294493 2.90981
        3.8848 1.4486 0.333135
        5.69083 0.854028 1.54857
        5.72066 0.53292 0.418382
        1.78469 0.140386 1.77518
        4.75934 -0.476538 -0.0758348
        1.44896 2.11717 -2.41778
        0.208249 1.09777 1.28753
        4.41081 1.01996 0.763679
        0.255642 0.597417 2.40377
        2.87029 1.29233 -1.60269
        1.36721 -0.0241273 2.96171
        1.70428 5.38293 2.82194
        6.62942 1.39011 5.1945
        2.07597 5.77506 -1.74709
        -1.15887 3.2349 4.06723
        6.39444 -2.1248 3.45561
        5.94083 3.95388 -1.33637
        3.71024 1.23842 -1.15224
        1.87187 0.398954 5.09802
        0.316344 1.34552 -0.113707
        1.98519 -0.962707 6.58289
        2.6358 -3.38421 -2.58631
        -3.2977 -3.68114 4.82206
        6.58354 0.8592 -1.39245
        2.30687 -2.72495 1.34426
        -1.25816 1.85981 2.72699
        1.30616 2.5505 0.720603
        3.26954 4.2118 3.43887
        -0.245592 -2.48305 1.73324
        1.66657 2.81686 -0.829572
        1.69288 1.42226 -1.82982
        1.87665 4.54979 5.81182
        2.60831 3.5085 -0.877868
        3.26415 1.44233 0.185249
        5.01244 0.356271 -0.275016
        1.30598 0.796772 1.8366
        -2.09349 -1.73131 -0.323138
        3.49257 3.25122 3.10899
        6.65609 -5.51587 0.00748246
        0.792888 1.55066 1.71394
        2.68409 1.30726 1.08429
        -1.25351 -4.66744 2.47003
        -0.584848 -0.90591 -0.348887
        0.666029 -1.05746 -1.91677
        3.37693 0.208292 1.66359
        3.57272 -6.74157 -1.60706
        5.51812 1.70606 -0.316142
        1.94997 1.80163 0.753443
        5.49037 -4.85999 2.38333
        2.5395 -3.65677 0.432333
        0.64372 -0.574154 1.23556
        3.3803 -1.47851 2.55308
        2.1649 0.89675 -5.47438
        6.27788 -0.342398 0.853837
        -3.88809 -3.86515 4.32776
        -1.62607 1.98207 -1.87932
        4.71464 -2.09754 2.52434
        1.01818 -0.0752421 -1.09255
        3.00476 2.64786 1.44471
        5.2706 -3.27352 3.44264
        5.7358 1.91153 3.10183
        3.0002 2.0113 1.06884
        0.0078248 -1.86677 0.0179678
        5.70095 2.96186 4.35485
        2.77241 -3.26287 -1.9967
        -4.46123 -0.990671 4.02656
        1.45789 1.34059 -0.652171
        5.47504 0.362064 0.599522
        2.82897 3.84848 -2.78583
        0.767259 0.593714 1.4364
        -3.40213 2.32103 0.244635
        7.25221 -0.280145 5.94072
        4.55981 3.94584 -3.38212
        0.321479 -4.30108 5.03814
        2.89352 -1.94707 -1.69576
        4.60361 -1.96092 3.65278
        4.17012 -0.150325 -0.396103
        0.303746 4.88054 1.20949
        5.47261 -4.30845 2.65432
        4.40061 5.70218 1.64334
        0.194201 3.35445 2.34856
        0.294369 5.51709 3.09179
        3.36631 -2.23682 1.17188
        2.99863 -1.35902 -0.455005
        0.915383 6.07236 3.65613
        -2.62223 -5.3359 1.8905
        -3.83902 -4.43811 1.76183
        2.40082 -1.71451 0.594018
        -0.270041 0.817275 6.69803
        1.79886 -0.14086 0.210126
        1.13034 5.11243 1.8381
        1.67152 -0.0674761 -0.333814
        2.47565 3.86839 1.07875
        -0.0780893 -1.35532 -3.96418
        -1.36218 -1.34191 1.28033
        2.34702 -2.48178 6.82795
        6.8413 2.0763 -0.18717
        2.62042 1.45619 3.93335
        4.36309 -1.07664 -3.30709
        1.18591 -3.92059 -6.49112
        3.50922 3.13031 1.64819
        -3.96976 5.69565 1.65535
        -4.86971 -1.52043 -0.456886
        -0.918661 2.34386 -1.26073
        1.11205 -2.48561 -2.62302
        4.5465 0.108984 4.01387
        6.69155 -3.18144 2.07949
        1.80319 -3.07634 1.28908
        2.01299 -3.74054 -0.164085
        1.25881 0.71918 0.0419991
        1.49866 -1.57824 7.59783
        1.96346 -1.72182 1.50655
        3.98435 3.17841 0.928792
        3.82352 1.49257 3.71349
        2.29249 1.90561 1.04383
        1.98215 -9.74999 3.66674
        0.106901 -6.02748 -4.36011
        -2.83351 2.03607 4.38626
        1.21458 4.9057 2.1308
        4.56675 2.70474 -0.423121
        5.22579 -4.05384 4.85125
        5.42958 -2.07929 0.0231399
        -3.20186 -1.98216 1.42259
        0.29222 2.21484 1.70664
        1.02892 1.63622 -2.11381
        0.0564947 -1.75256 5.67453
        -0.793159 -1.89985 -4.41505
        3.15683 3.76336 0.764621
        2.07658 3.79022 -0.602762
        2.96499 -1.54162 1.48223
        -3.29955 -1.6501 -0.133724
        -1.1651 4.63807 -0.486907
        7.76791 0.177112 -0.685154
        -3.06466 0.512982 6.73939
        0.769635 0.858201 1.54661
        2.78923 3.26563 1.85675
        -1.02475 -3.09799 3.33283
        0.454698 5.06681 -5.02191
        4.1894 -5.99052 -1.89231
        3.85673 -2.35641 6.94238
        1.42889 1.47417 -0.0749932
        3.26255 5.91107 -1.76399
        1.85993 0.987758 -0.826865
        1.89634 -0.338445 0.403548
        2.87701 0.558409 2.58503
        1.25983 1.82678 1.11619
        -3.58302 -7.42839 2.62551
        2.38852 -3.66633 2.08882
        -1.88527 5.53408 -3.80133
        2.16942 3.95613 2.14026
        0.369535 1.51465 3.61277
        -1.39184 -2.89806 1.65716
        0.000930407 -4.17996 2.88016
        0.587393 3.79604 0.628065
        3.75947 0.0369294 4.37727
        3.77316 -0.849678 0.312172
        -3.9148 -0.477994 1.28671
        -1.92431 0.802725 -2.78541
        2.47518 0.672739 -1.14618
        1.73416 1.27718 2.10572
        3.03165 -0.918656 0.527701
        5.04342 1.80778 0.0818607
        4.53485 -3.37387 -2.52473
        4.79323 4.59546 2.01435
        2.50527 3.17204 0.45432
        2.87198 4.18923 2.91719
        0.685441 -3.57933 6.7404
        1.20139 3.66549 5.95577
        1.74555 -2.93112 -3.4144
        -1.39371 -4.60853 0.455782
        7.58751 -1.90685 -2.78796
        0.342267 5.01139 -0.415607