<?xml version="1.0" encoding="UTF-8" standalone="no" ?>
<VTKFile byte_order="LittleEndian" type="UnstructuredGrid" version="0.1">
  <UnstructuredGrid>
    <Piece NumberOfCells="0" NumberOfPoints="15094">
      <PointData>
        <DataArray Name="velocities" NumberOfComponents="3" format="ascii" type="Float32">
        0.825433 0.849604 0.489409
        -0.849965 1.50128 0.071214
        0.738987 1.66583 2.17183
        3.39999 0.0433157 3.86082
        -0.289814 0.445246 -0.269286
        2.46517 -1.83676 -1.79087
        0.642523 1.52265 -0.609486
        4.52146 3.36113 3.04272
        0.9904 -2.71568 -0.301897
        1.6362 -0.712063 -1.50868
        -0.212703 -0.687837 -4.28169
        1.32428 0.346893 5.66629
        0.1856 -1.06923 -0.840825
        3.45427 -3.61821 0.657719
        -1.9744 1.57494 0.80469
        0.287809 3.77846 1.0227
        -2.90598 0.654987 -1.56549
        3.03495 -0.668054 1.83534
        0.476813 -2.6427 -1.85398
        3.28443 0.936223 2.34907
        0.457831 1.24573 2.88484
        1.26165 1.66543 3.09925
        2.78569 0.0306622 -1.83055
        2.06372 1.88611 -0.848657
        2.80405 0.625296 -2.15856
        -2.29838 -4.2824 -2.63881
        -0.269804 1.80179 1.11518
        -1.02284 -1.68313 -1.23056
        -0.763122 -2.32329 2.28966
        0.919525 -1.06601 -2.32506
        -1.46871 0.901558 -2.74728
        0.476837 1.35574 3.84624
        -0.699323 -0.699183 1.49147
        1.45568 -3.45607 1.36655
        -0.671894 1.9062 2.22655
        -1.45474 -2.04784 -0.653038
        -0.00936123 -0.38637 1.46104
        0.212041 -1.12818 -0.672757
        1.34845 -0.0291497 0.253516
        0.604782 0.0730965 -3.512
        4.71575 -3.08514 0.331149
        2.17532 -1.10276 -2.51285
        1.04772 3.02952 -2.23726
        2.73578 0.414773 0.219595
        2.51122 1.07048 3.21618
        0.180762 1.98628 -2.14937
        1.80499 1.06801 -1.68604
        -0.931026 1.76103 -1.47329
        4.54677 -0.661147 -1.10379
        4.67294 -0.0522698 -0.384753
        -0.619779 -1.85841 0.845573
        3.76529 1.02021 -0.144042
        1.31983 0.287112 0.763776
        -0.0596027 -0.471354 0.939617
        -0.792728 -3.22156 1.94653
        2.14977 1.381 -2.42706
        0.786349 -0.755573 1.48817
        2.77717 0.14456 0.832613
        4.4044 1.88759 -0.793137
        -1.7842 1.07667 1.63782
        1.03105 -0.515873 -3.23818
        -0.606542 2.88325 -1.29537
        -0.688839 -0.116605 0.995093
        -1.16373 -1.08091 -0.266379
        0.741774 3.52882 -1.85825
        2.04506 3.66264 2.16741
        3.04799 0.497707 -0.265112
        1.64026 3.39205 2.88059
        1.78416 3.45188 0.220684
        -1.88817 0.263273 -0.243697
        1.31058 3.06217 -0.875805
        3.30383 3.18506 -2.70515
        2.715 -0.212335 -1.73193
        1.64807 -0.716355 0.472496
        4.55424 0.197866 0.699994
        4.56154 0.696838 0.04296
        0.78736 0.592676 2.21005
        4.61094 -0.355949 -0.716635
        1.69801 3.04195 -0.612476
        2.18318 -0.277189 0.758403
        -0.850043 2.46635 0.759379
        0.00671873 -0.425833 0.992625
        3.96645 -1.73606 -1.88641
        -1.68265 0.99991 1.02146
        1.55499 -0.345949 2.48906
        0.387782 1.73301 -0.415493
        3.40642 -3.5913 -1.27001
        -1.56571 -0.267289 -0.76653
        -0.114456 1.61428 -3.02507
        0.796306 3.07885 -1.90298
        4.38098 2.74955 -0.28023
        1.95493 -0.426638 4.60362
        3.03756 -0.374654 -1.70559
        -0.560671 -3.37677 -0.928231
        0.710953 1.04048 -0.772458
        -1.38792 -3.56379 4.3144
        4.10033 -1.01696 -2.97344
        -0.598242 -0.351161 -0.509131
        3.46786 2.62451 -0.577586
        0.940689 2.13106 1.90727
        4.24589 4.23239 -0.202352
        0.730103 -1.4582 0.146093
        -0.273821 0.388362 1.32857
        3.99736 -0.331779 5.93132
        2.15009 -1.30267 -1.8727
        3.80807 -2.59318 -0.32738
        3.59093 -2.76989 -3.55653
        4.28028 2.25186 0.958299
        1.96396 1.45237 -1.63997
        4.5873 0.157699 -0.7658
        4.11514 -4.25842 0.248377
        0.369219 -2.40297 -0.966507
        0.694623 0.0852841 0.884949
        -1.11069 3.44028 -0.377071
        -1.53174 -0.39951 0.12066
        -0.0866126 1.71471 1.24926
        4.54405 -0.870393 -2.11605
        -0.379025 -2.39793 -2.47
        0.211208 -0.029829 -4.98002
        1.98902 -2.1595 -1.75114
        4.62252 -0.0786631 2.56436
        1.15317 3.04385 0.680645
        0.970215 -0.866686 -2.99903
        3.2157 1.91452 -1.82146
        4.21446 0.720255 2.01451
        3.38963 -1.06202 1.58329
        2.25616 0.812609 -2.15933
        1.82776 2.91885 1.35912
        5.1987 1.16838 1.16878
        2.89761 2.04337 0.73691
        2.27411 1.36402 3.13393
        2.79433 -0.53448 1.71563
        3.17718 4.7761 -0.051196
        1.53459 2.28837 3.05882
        3.10023 2.92238 -0.750582
        1.1962 0.225806 -1.55009
        2.43969 -0.401552 1.36237
        -0.672734 -1.53129 -1.90446
        2.043 0.0406317 -2.35751
        2.09228 0.635155 2.45338
        1.34314 1.12009 0.356836
        4.20013 -0.514002 -3.37826
        -1.39403 -0.681916 1.45059
        1.45115 -2.11734 -0.595933
        2.32017 1.88151 0.0483711
        6.02399 1.16436 0.218366
        0.0335902 -0.284343 -1.67281
        1.02416 2.12937 -0.610195
        -2.19607 0.919515 1.1083
        0.36828 2.20718 -0.479475
        1.11499 -1.8117 -2.23661
        1.79863 -0.239351 1.22834
        0.955001 1.40348 1.60207
        -0.310557 -2.14993 -1.58325
        1.30243 3.0354 -1.64991
        -1.32677 -2.59294 -1.82325
        -0.285535 0.112805 0.291107
        2.33821 1.60694 1.31331
        2.38962 2.03809 -2.25232
        0.288899 0.932523 -0.560399
        2.86837 0.671685 1.76464
        0.694194 -1.14089 1.98387
        1.60632 2.3773 -3.90655
        1.54166 -3.13747 -0.252154
        1.87992 3.02033 2.69126
        2.1799 2.72889 0.104345
        1.30941 2.66666 -2.47634
        3.55116 3.6553 3.07808
        1.71967 1.70164 -3.58074
        1.25373 -1.50087 -1.59979
        0.323608 2.74963 -0.646661
        5.79346 1.7204 0.722659
        -1.61337 -0.569375 -0.301498
        1.70145 -0.21105 0.612046
        -1.45285 3.79884 0.598191
        1.00773 -0.479257 1.12579
        -0.754158 0.651802 0.132762
        0.652242 -0.257287 -1.55099
        -0.445678 -1.07652 -1.31189
        0.369458 -0.856132 -0.807978
        1.19194 0.796242 -1.81668
        3.08302 0.970568 -1.43483
        -0.570699 0.942335 2.73295
        1.10265 0.684723 0.639845
        -1.0672 -0.845082 -1.48045
        0.0106132 4.2315 -0.320749
        0.158238 -1.91675 4.11988
        -1.20035 -0.0113159 -0.684019
        2.90417 1.22352 -0.605228
        0.462267 0.39882 -1.55107
        1.27857 -0.504437 -1.19313
        0.00817707 1.22016 0.453245
        4.65664 1.12825 -3.74017
        2.72979 -0.0838951 0.176113
        0.543515 0.911929 -0.106614
        2.57966 -4.27523 0.364997
        -1.52237 0.587843 -0.672582
        3.13596 1.19901 -0.551329
        1.25079 -0.958043 -0.178781
        0.0515111 -0.284829 -0.46166
        2.0239 2.48615 3.04981
        2.52329 3.60326 3.19327
        3.27706 3.79029 3.54405
        1.03913 3.28877 4.64397
        2.50042 0.741438 4.11457
        1.06357 3.45975 2.90936
        2.45081 -3.68967 2.87504
        -0.26955 0.815395 1.1815
        2.15 -0.604417 -5.33411
        1.70925 2.67252 0.186324
        -0.269455 -2.05347 -1.46411
        -0.00961246 0.34106 -0.303318
        0.588186 4.01223 -0.985124
        1.01972 1.8334 2.45613
        0.939054 1.61621 1.32562
        1.04402 4.0744 -1.03579
        1.58624 0.780234 0.62056
        1.52991 -0.54151 -5.68233
        0.336394 3.19101 -1.22202
        2.13392 -0.399315 2.93461
        1.01625 1.39875 1.79462
        2.74737 5.02006 0.533675
        0.360525 3.29233 -2.48657
        1.85085 1.84514 2.3187
        0.975068 1.13297 1.29953
        0.071851 0.999048 0.464408
        0.093869 0.760125 0.580864
        -0.941371 -2.39041 -0.878688
        -1.61487 -1.01676 0.677616
        0.160891 4.31645 -0.00983963
        1.08913 -0.484769 3.37009
        0.173988 -0.896355 -0.270353
        0.771411 -0.687257 0.0990358
        2.03961 -0.759055 0.77866
        -0.344517 0.331607 -1.02909
        -1.13536 2.08336 1.5512
        0.138773 -0.998118 -5.49386
        -0.105518 3.18127 -3.52589
        2.54712 3.02707 1.88441
        2.4605 1.74722 -1.90229
        2.0581 2.19932 2.73252
        2.24729 1.04326 2.12226
        2.75899 -0.771051 0.845752
        -0.068903 -0.903306 0.491357
        2.14879 -1.40846 -0.416373
        3.59588 -1.22079 0.365997
        0.283905 1.88957 -1.2517
        0.253772 2.25492 -1.12622
        0.079486 1.58251 -1.88863
        0.500605 0.420476 -0.341804
        0.932097 -1.38002 0.046815
        2.62012 -0.545005 -4.20525
        0.0740168 0.816957 -0.578945
        -0.027782 1.0351 -0.527097
        -0.00524865 1.04136 -0.538385
        0.0173371 2.18808 4.07699
        0.00835327 2.13012 3.90904
        0.00516208 2.15912 3.88216
        1.63529 2.49852 1.6998
        -0.114299 1.27261 2.09756
        0.617178 -2.24695 0.285186
        -0.0444244 1.37596 2.11031
        -0.00154851 -1.15294 -5.47408
        1.27551 0.957128 1.45017
        -0.00162055 -1.15572 -5.47143
        -0.0791172 3.33267 -2.83525
        0.0810618 -2.48679 0.402088
        -0.0376138 3.31895 -2.88609
        0.12983 0.843411 2.15054
        -0.00626927 3.31557 -2.89787
        0.0135928 -1.12955 -5.47863
        0.0227857 -2.47407 0.405618
        -0.00324903 0.799821 2.19201
        -0.00322079 0.624536 0.51432
        -0.0158713 0.650017 0.421314
        -0.00354773 0.655075 0.407437
        0.0442199 3.26296 0.822637
        0.0397165 2.31497 0.89462
        0.0111194 2.28027 1.0037
        -0.0359487 -0.224562 -0.0254423
        -0.0835108 -0.151127 -0.0874746
        -0.0134082 -0.17053 -0.143652
        0.540003 1.49984 1.87331
        -0.0520003 1.49502 1.74137
        -0.00951421 1.52198 1.75039
        -0.0119053 0.581967 -0.625905
        -0.0559674 0.643925 -0.652968
        -0.0755068 0.790295 -0.690442
        -0.133759 -0.835559 0.547587
        -0.0250285 -0.803296 0.580327
        -0.00231051 -0.797966 0.584754
        -0.0382654 -1.0418 -0.871953
        -0.167256 -0.962517 -1.02182
        0.0628376 -0.984156 -1.09494
        -0.0116383 3.59904 -2.37745
        -0.0491101 3.58032 -2.41569
        0.147409 3.70624 -2.09407
        2.15561 -2.62423 -0.0441321
        1.46125 1.93221 2.65884
        -0.000453449 1.03978 -0.54114
        -3.64517e-05 1.03946 -0.541268
        0.000959791 2.16616 3.88213
        0.00012116 1.03955 -0.541266
        7.84193e-05 2.16688 3.88235
        -0.000336098 2.16672 3.88231
        -0.00866699 1.40372 2.10928
        -0.00140896 1.40823 2.10904
        -0.000820579 3.31578 -2.898
        -0.00314466 0.798433 2.19799
        0.000371205 1.40875 2.10899
        0.000116484 -1.15081 -5.47612
        0.00453637 -2.46319 0.403489
        -0.000527838 0.799943 2.19944
        0.00370398 1.40683 2.10911
        0.000126366 0.800149 2.19961
        0.00143676 0.799395 2.19898
        -2.91231e-05 -1.15072 -5.4762
        -5.9134e-05 3.31617 -2.89798
        0.000397419 -2.46067 0.402943
        -0.000346579 -1.15107 -5.47586
        0.000290864 3.31605 -2.89798
        0.000466238 3.60531 -2.36913
        -0.00172135 -2.46137 0.403107
        -0.000143984 0.655477 0.406236
        2.17465e-05 0.655589 0.406077
        -2.62709e-05 0.655556 0.406132
        0.00171108 2.28083 1.03547
        0.000220381 2.28217 1.04013
        -5.63878e-05 2.28235 1.04048
        -0.000631175 2.28168 1.03898
        -7.66318e-05 0.57235 -0.622737
        -0.000770284 -0.175595 -0.154447
        3.68764e-05 -0.176307 -0.155565
        -9.07169e-06 -0.176339 -0.155621
        6.33947e-05 -0.176149 -0.155334
        -0.00075908 1.52882 1.75581
        -3.24322e-05 1.52965 1.75666
        0.000175245 1.52946 1.75646
        -0.00119688 0.57283 -0.622612
        -0.0044583 -1.05814 -0.843085
        0.000348725 0.572417 -0.622669
        1.20378e-05 -0.797374 0.584428
        9.9951e-06 -0.797296 0.584323
        -1.23821e-05 -0.79732 0.584348
        0.00121587 -1.05934 -0.840952
        6.87921e-05 -1.05954 -0.840518
        -0.000306648 -1.05955 -0.840547
        3.33204e-05 3.60558 -2.36917
        -0.000133049 3.60553 -2.36912
        -0.0014562 3.60464 -2.36956
        0.00164372 1.04039 -0.540484
        0.0149492 1.04134 -0.533751
        0.082823 1.0156 -0.486964
        -0.00249003 2.16431 3.88174
        -0.00828033 2.14772 3.88812
        0.00145798 2.1272 3.96504
        0.431801 0.707214 -0.13964
        -0.198366 2.51258 4.31973
        0.0200949 1.39588 2.10958
        0.00517052 0.797566 2.19588
        0.078893 1.3397 2.10847
        -0.0201874 0.815129 2.18667
        -0.953404 2.2833 1.78416
        -0.357089 1.0416 2.18289
        0.00226547 3.31546 -2.89806
        -0.00667178 -1.15171 -5.47178
        -0.0108426 -2.4672 0.404335
        0.016345 3.31704 -2.89555
        0.000688036 -1.15163 -5.47529
        0.00206252 -1.15478 -5.47262
        0.0640469 3.32328 -2.86101
        -0.0442312 -2.4828 0.405984
        -0.0735605 3.37584 -2.83288
        -0.188219 -2.39638 0.362595
        -2.51324 -2.17235 0.262908
        0.00104761 0.655355 0.406537
        0.00875463 0.654281 0.410549
        0.0207408 0.63947 0.4528
        0.0423185 0.671672 0.50624
        -0.00484005 2.27976 1.02562
        -0.0214353 2.28801 0.963445
        -0.0220094 2.61401 0.847129
        -0.265213 0.808143 -0.625739
        0.0726739 0.703414 -0.672584
        0.0289783 0.601808 -0.634733
        0.00367517 -0.174139 -0.151653
        0.0354542 -0.163779 -0.125594
        0.0456865 -0.160528 -0.0620831
        0.00287942 1.52692 1.75408
        0.0262084 1.51153 1.74449
        0.0797941 1.49909 1.78446
        -0.605228 1.85484 2.46961
        0.0861408 -1.01548 -0.920773
        0.128692 -0.946931 -1.08617
        0.000441337 -0.797527 0.584591
        0.00821874 -0.799321 0.584041
        0.0178553 -0.811871 0.571632
        -2.80781 -0.838562 0.585128
        0.0141456 -1.05389 -0.850472
        0.00404828 0.574724 -0.623059
        0.0272461 3.59149 -2.39162
        0.00448181 3.60297 -2.37144
        0.0246786 3.56543 -2.41169
        -0.148903 -1.0856 -5.47797
        -0.154143 -0.705579 0.218133
        -0.706359 3.7273 4.08642
        -0.225566 -0.196861 0.289439
        -1.305 3.62621 0.851595
        -1.39346 4.78716 0.795626
        -2.44657 0.108937 0.0131208
        -1.05812 1.35617 1.08125
        -2.83555 0.718012 2.75967
        -0.76994 1.67303 2.25773
        -2.5223 0.398369 1.97871
        -3.56083 4.99486 -1.58562
        -0.882936 0.885651 1.8883
        -1.27237 3.59671 -2.02012
        -0.769279 -0.664305 -5.50621
        -3.07309 2.30461 -3.88503
        -0.298082 1.41654 0.958249
        -1.33598 4.65459 -1.53961
        -0.479533 2.904 -1.29802
        0.32682 -2.51294 -0.204204
        -1.85436 0.145117 3.4961
        -0.300401 -2.94289 0.699322
        -1.90169 3.42312 0.777415
        -1.05797 3.68047 -1.46148
        -0.449888 0.0667371 0.599001
        0.161659 0.918929 0.400504
        -0.357556 1.19697 1.21001
        -1.87198 1.95322 0.472453
        0.37865 4.63177 1.06511
        1.76158 0.852325 0.0062369
        2.56098 -1.17355 1.131
        -2.16282 0.686484 -0.352084
        0.182494 -1.05837 -3.42606
        0.403264 -0.712899 -5.50611
        -0.164487 1.03224 -0.894184
        -0.303131 2.20046 -0.901876
        -1.26822 -0.436893 -0.0227259
        -1.15975 1.39762 -0.965117
        0.74725 0.705322 -0.341667
        -1.06196 -0.312827 0.411213
        -0.846816 1.89427 2.49905
        0.0782178 1.00457 1.11738
        -0.763509 -0.0031901 0.845742
        -1.66007 -1.29136 -0.728066
        -1.6543 -1.4362 0.124468
        -1.00856 -1.25099 0.129591
        -3.22581 1.63474 -0.559264
        -1.89687 -0.836895 0.278919
        -1.47773 1.50467 0.818797
        -1.08415 4.42032 1.62627
        -1.24497 0.668065 -0.957214
        0.635463 -1.87832 3.50964
        -2.94792 3.1258 -0.170993
        -2.70545 1.6749 0.286744
        -1.9022 1.11882 2.76641
        -2.4849 0.375941 -1.38245
        -0.440951 -0.0558537 -2.72354
        -3.30478 0.53501 0.821241
        -2.09955 0.565987 0.588406
        -3.9598 0.674278 0.284104
        -1.51066 4.17063 2.2768
        1.87568 2.57731 0.525334
        -4.09381 -1.79771 0.969801
        -2.74936 -0.918544 0.364523
        -1.70389 0.994846 3.12079
        -0.0513157 1.11716 -0.466613
        1.54151 -2.99887 3.09783
        0.977412 3.49713 0.608921
        -3.82869 3.00687 -0.445094
        -2.28798 -2.12983 1.23156
        -0.330543 2.40601 -0.220784
        0.524463 1.26782 -0.256119
        -2.22359 -0.884025 -0.816885
        -1.25221 -0.832925 -1.25904
        -0.857807 -0.417455 -0.735372
        0.0975176 3.71587 0.305343
        2.36382 1.36396 -2.04172
        -0.341161 -2.71291 0.909063
        0.249458 2.14519 1.36445
        -1.0287 2.55801 -2.31623
        -0.226208 -1.52856 -3.68977
        0.872753 1.6978 2.26495
        -1.10013 0.578346 2.12227
        -1.88264 4.00663 0.34132
        -0.730031 3.00771 0.71077
        0.589773 0.510103 -2.32596
        -1.32772 -2.95395 -1.16284
        -1.57216 1.02383 -1.36559
        -0.119738 -1.51055 -1.9784
        -0.137434 -2.39397 0.0959454
        -2.78057 -0.756745 0.813584
        -0.230554 2.27629 0.894063
        0.297832 0.876031 -0.737393
        1.16911 1.36966 -0.93529
        -2.76296 -2.17263 0.649916
        -1.88603 -0.197754 -0.852127
        -2.75808 0.982544 -1.3536
        -0.613208 -0.330378 -3.76882
        -3.22219 0.954086 -0.514712
        -1.72065 -2.43665 -2.73003
        -2.26765 0.691122 -0.0844773
        -1.22409 0.0403682 0.838599
        -1.40559 -1.47264 0.571101
        -5.55272 1.85047 1.82683
        -0.373701 -0.571317 1.60292
        -0.661335 0.0670388 0.510667
        -0.166419 1.874 -0.0455295
        -6.76447 -0.569907 0.588287
        -1.67468 -2.55626 -0.558801
        -1.11028 -0.154145 -0.916795
        -1.34575 3.45256 5.90895
        -0.384332 -0.20466 -1.95275
        -5.14926 0.201046 3.0245
        -0.560924 -0.216613 0.87361
        -0.616946 -0.842613 -0.629456
        -1.28546 0.365705 -2.51647
        -3.64667 3.52964 4.20728
        -1.94238 -0.147281 3.91895
        -2.84625 -0.399734 1.14772
        -1.67213 -0.672249 -0.014424
        -2.2969 -3.0605 3.18321
        -0.121389 0.911185 -0.0255471
        -1.25252 -1.64173 0.736215
        -2.13055 1.62144 -0.773732
        -0.765261 -0.605192 -1.0341
        0.759447 0.894858 -1.07005
        -3.29306 0.602943 0.117592
        -3.96641 -1.93 -0.357576
        -2.33805 -0.128793 -3.68017
        -2.99562 0.231018 0.855861
        0.330723 -2.10109 -0.198184
        0.0239433 0.477042 -1.767
        -1.06139 -4.67174 2.13991
        -3.13421 -0.280962 -2.11165
        -2.16126 0.709977 1.97477
        -0.84054 1.03607 -0.259325
        -3.15674 0.811522 0.800927
        0.622365 0.836561 0.686936
        -0.857688 2.67504 -1.93987
        -2.428 -2.5248 1.5135
        -3.77949 3.05178 -1.01559
        -4.05947 -2.63067 -3.10797
        -1.62619 2.98091 0.74881
        -1.67005 -0.0575792 0.313639
        -1.55045 -1.00132 -3.72639
        -0.591246 0.0561382 -3.03347
        -4.38975 0.556759 3.58232
        0.268288 0.424684 -2.60906
        -2.73193 -1.49589 1.17103
        -3.0711 1.75314 1.07073
        -1.32205 -3.12953 -0.348299
        -0.282055 -0.754119 0.54315
        -1.53964 -2.52573 -0.0792138
        -5.88137 2.29806 -0.91477
        -1.95343 2.47182 -0.488041
        -1.86292 -1.84028 -2.17753
        -2.01197 2.62581 0.276076
        -1.14481 2.92737 -3.36727
        -1.6152 3.14268 -3.01638
        -6.70727 1.86278 2.32632
        -4.4482 3.5559 -1.02847
        -5.81408 -1.39112 -1.91787
        -1.49394 -2.15186 2.59329
        -2.41028 3.37265 -0.803336
        -2.04151 0.670328 2.67261
        -1.06769 2.73059 3.6619
        -2.44163 -0.745819 0.565952
        -0.823661 2.26925 -0.0634266
        -4.35156 0.766411 -0.389206
        -4.92338 1.47687 -0.184979
        -3.05857 -3.77984 0.657391
        0.77889 -1.56252 -6.70951
        -3.46357 1.93283 -3.52547
        -0.845924 -0.163351 0.961976
        -2.08031 0.095981 -0.371049
        -2.72897 -1.41156 0.808384
        -2.05603 -0.763333 -2.29366
        -0.329531 -0.482675 1.73503
        -0.816625 5.74918 -0.855087
        -1.38839 -3.53266 -1.70513
        -1.03549 -2.50474 0.0358168
        -0.218421 2.15794 1.57873
        -3.56123 1.04531 -2.30337
        -2.61318 0.183991 1.02574
        2.7138 1.02198 -0.99533
        0.452023 -2.77818 -1.51132
        -2.09365 2.25231 1.89641
        -2.55296 -1.10077 1.86044
        0.031924 -0.490673 -2.88714
        -2.07944 -2.81695 -0.472266
        -2.20236 1.65956 2.22175
        -1.88006 1.28323 -0.486878
        -4.67605 0.363964 -0.374495
        -0.892874 2.02808 1.37614
        -1.81444 -2.44217 -2.77994
        -3.456 -0.327223 -1.80708
        -3.41164 -0.63226 -0.516801
        -1.43145 4.18328 -0.221048
        0.627507 -0.652018 0.728375
        -0.662115 -0.942147 -0.807382
        0.712493 3.18726 -1.5603
        -2.69336 2.77683 -1.22656
        -6.59508 1.571 -0.464695
        -6.62004 0.477549 0.221833
        2.46941 -3.87797 -3.50209
        1.60176 -1.00015 -0.333494
        -1.26278 -2.03613 -1.1233
        -1.76314 1.46257 0.704911
        -0.874307 1.658 0.912061
        0.689322 0.805514 -1.50374
        -0.181325 5.19348 -0.0599868
        0.928432 -2.45614 0.469149
        -1.51314 0.607988 -2.62453
        0.824057 1.8392 -1.51973
        -2.54119 -0.501405 0.695873
        1.09883 0.152095 -1.01696
        1.06243 1.06374 -1.39838
        -1.59225 2.38075 -1.50717
        3.37323 -1.4327 0.128294
        -0.681768 -1.46289 2.43797
        1.78339 1.97113 -0.359653
        -1.75731 2.28851 1.05079
        0.507755 0.0386123 -0.459639
        -1.90218 3.19317 -4.44642
        -1.91727 -2.29725 -3.18691
        0.084211 1.38048 3.8086
        -2.10311 -3.6133 -0.613726
        -2.17247 1.3091 1.03459
        0.605333 2.94328 -7.0138
        -1.48716 -1.64621 -1.39315
        -5.17072 -2.06124 -3.3855
        1.47258 -1.11179 0.729722
        1.39702 0.734675 -4.15649
        -2.08945 0.527365 0.347149
        1.4309 0.040894 -0.626531
        -0.836869 -0.756454 0.582899
        -4.04569 -3.45043 1.29969
        -0.666809 2.29118 -0.405873
        -1.09589 -2.97601 -5.82412
        4.54276 0.736288 0.154733
        -0.898259 -0.0286417 -4.3364
        -2.60635 -0.258435 -1.54763
        1.88675 1.43488 2.31611
        2.23335 -0.269885 -3.23217
        -0.269727 3.04372 0.0550987
        2.39025 -1.46834 3.22166
        -6.58151 -1.19713 0.135195
        -0.422467 -1.87852 1.19893
        -1.74669 3.27543 1.84102
        0.522672 0.637871 1.09948
        -2.91487 -4.21723 3.17796
        -0.308265 0.874149 2.18348
        -2.26937 -0.482376 1.52769
        -0.576664 -1.08424 -0.418704
        2.12533 -0.666219 1.36303
        -1.11095 -0.101863 0.869907
        1.44216 2.06787 -0.791603
        -1.07886 -5.52685 1.90156
        -0.265911 1.26045 0.558543
        2.76064 0.733381 1.76531
        -0.258462 -0.649935 -4.2653
        1.48462 -0.706194 -0.501971
        0.672163 -0.690528 2.26548
        -1.6881 0.703009 -2.08834
        5.93418 1.82149 -1.19369
        -0.693999 1.47413 0.65107
        0.680148 1.05016 -2.61265
        0.179942 -2.11063 1.26237
        -1.21849 1.75157 -1.71226
        -1.09207 0.522226 -1.17519
        3.5009 -1.03839 -2.11567
        2.60282 3.36724 1.38164
        -2.21606 1.78695 3.01163
        -1.07404 2.61806 -0.665782
        2.93577 -3.76014 -2.21337
        -0.364658 2.51666 0.436048
        0.145295 -1.12308 0.401634
        1.2045 5.32461 -0.792486
        -1.20839 -1.53869 1.73708
        0.741191 -0.502869 2.09054
        0.51168 -0.0788519 -0.963612
        1.19269 -2.01889 4.51687
        2.54581 2.97557 1.42449
        0.120718 3.0025 1.71437
        4.74605 0.296492 -1.05254
        -2.56761 -0.922732 -1.03343
        5.40622 -2.4868 -2.02645
        2.4275 -2.23678 2.32572
        3.16215 2.24025 -1.02716
        -1.81599 1.81714 -2.53027
        3.44706 2.29918 -2.50183
        0.903914 0.164438 0.34845
        2.42011 1.44366 0.000323018
        0.133706 -3.95804 -2.80175
        0.401098 1.27436 1.12587
        0.553666 3.2429 -0.445706
        -0.90029 -0.687711 -2.52403
        -2.89043 1.21928 5.21885
        -2.57697 0.38223 2.00451
        0.0260503 -1.53751 -0.811049
        2.04533 -0.307652 4.70506
        -1.526 -1.02906 -0.770674
        0.681149 2.35721 0.773453
        1.12592 -1.32275 -0.925688
        0.28196 -0.780293 1.1103
        0.677971 -0.416656 0.10573
        -2.54757 2.52925 -1.10167
        3.80461 0.762659 2.36492
        -2.0741 -0.721407 -3.70422
        -0.120225 1.69416 -3.49225
        1.67217 0.746584 0.794325
        5.35249 2.65457 -1.53086
        2.36478 2.45255 0.0698175
        2.31508 -1.16637 0.381997
        2.78181 2.51514 2.25744
        2.031 4.2802 1.19598
        2.80982 -0.525749 -2.656
        -0.908344 1.15068 0.239665
        1.7296 1.63044 -0.955362
        2.52544 -1.5039 -2.01625
        4.17122 -3.75021 -2.22404
        2.91069 0.767262 0.722726
        2.85176 1.81861 2.21859
        2.69056 1.05761 -0.449911
        1.59839 4.39681 0.791484
        1.72545 0.268853 0.132835
        1.60953 -0.842652 0.939907
        -1.60995 3.37252 -0.338428
        -0.444962 -0.0572462 -1.76454
        1.24408 1.91311 1.5646
        -0.0955006 2.30937 1.54436
        2.58953 0.918749 3.21838
        0.187655 2.84772 -0.916067
        -0.2834 1.59666 0.485981
        -1.70177 4.07944 1.45267
        -2.38241 -1.45556 -0.00867774
        1.56248 -1.05518 3.6391
        1.91199 1.44645 0.0192429
        7.06839 2.78474 0.978859
        0.245524 -0.317528 -0.0560671
        6.20914 0.870406 -1.19418
        3.32071 4.04753 1.6
        0.791508 -2.79083 3.81142
        3.77704 3.78621 -0.907517
        2.33145 3.33 0.124321
        0.342145 0.788947 0.676394
        1.29852 -2.56332 1.12015
        -1.31616 2.09118 2.44092
        2.31759 5.01659 0.410669
        0.803672 -2.16112 0.129135
        2.61006 0.165454 3.70302
        1.1633 -0.696281 -1.25705
        3.16243 -0.36847 2.68204
        1.92669 2.24285 1.39455
        3.30822 0.47854 0.431965
        -2.71846 -0.198173 2.3964
        0.963208 -0.830442 0.199346
        1.32737 -2.13474 2.55036
        3.38128 -1.89906 1.12607
        2.03333 2.80983 0.468281
        -0.929376 -0.911456 0.309853
        3.0117 0.430173 -1.28935
        4.4818 -0.474972 1.36054
        1.64051 0.336698 1.16694
        1.38369 1.03583 -0.357435
        3.37792 2.50043 5.27795
        0.674857 -1.78896 -2.02935
        3.03442 -2.8434 0.22982
        -1.16382 4.20819 -2.9689
        2.31452 -0.707473 -0.00636411
        1.0849 1.57119 -3.1774
        4.30134 -0.365399 -1.06159
        1.9128 3.63063 0.329824
        3.20127 0.643374 1.96248
        0.735581 -0.841267 -0.749794
        2.00366 0.752395 0.312662
        0.0189314 0.864298 -0.0194628
        2.25759 2.23286 3.53622
        -0.205925 0.176097 -1.52056
        -0.593005 2.08799 0.890102
        -0.662846 2.37194 -0.375032
        1.56953 -0.326134 -0.632244
        2.58666 1.64422 2.22389
        2.26194 1.15216 2.48809
        0.0735677 0.0996807 1.31832
        -1.29849 1.70826 1.09007
        -0.449114 -2.14834 3.96255
        3.06241 2.04999 -0.26801
        3.35573 0.168441 -0.879508
        2.10964 4.41578 1.58411
        2.18073 0.164533 -2.15696
        2.56953 0.607238 -0.104523
        2.46013 3.38915 1.64883
        0.42035 2.30635 0.639194
        3.77758 0.184671 -0.294655
        1.97866 3.47634 0.771742
        1.9606 2.84425 -0.287833
        -1.39864 0.501017 -1.92693
        0.549562 -0.15167 0.328095
        3.62929 0.9315 -0.95472
        3.67274 0.540503 -0.289779
        -0.0128902 1.17491 0.145275
        1.7213 -0.936136 2.65603
        3.45934 1.38671 -0.732172
        3.12718 -1.18416 0.922231
        -1.74109 2.51123 0.509751
        3.18927 -0.142632 -0.676349
        2.3734 -1.98205 -1.79733
        1.61634 0.855517 2.59126
        -0.343031 -0.0291851 0.455495
        3.44072 3.48335 2.41403
        2.12879 1.79061 1.78704
        4.22204 1.47013 -0.466845
        1.07562 0.863421 -2.89698
        0.764389 0.633275 1.2653
        2.23254 2.3152 1.93484
        5.99563 -0.628967 -1.43757
        1.02372 1.92658 -0.160042
        3.04021 1.86696 -0.771562
        0.889811 1.13233 -0.490978
        0.177354 2.63205 -0.273784
        2.09576 2.97468 2.21354
        0.346685 -0.927785 -2.0036
        1.2852 0.561657 -1.28604
        3.40586 2.36707 -0.0317029
        0.889877 0.600128 -0.43994
        2.8651 0.772767 0.805527
        2.1274 -3.74125 2.00865
        1.41492 -1.02117 1.72645
        3.39555 2.2329 4.21285
        -1.48056 3.57595 1.31698
        2.54389 2.9764 -0.622744
        0.0162891 2.52916 2.51664
        0.0141185 0.643691 -3.13508
        -0.914349 2.95955 -0.486388
        3.07414 1.21355 0.632216
        1.56472 0.878015 3.81566
        -0.513406 0.0159852 0.312288
        -0.944833 -0.547819 -0.0908788
        3.122 0.0290267 -0.628196
        1.16934 -4.74081 1.75977
        -0.0217031 3.32552 -0.30736
        2.94139 0.722163 1.8498
        -0.18944 -1.50176 -0.365859
        -0.898047 3.2983 -3.31585
        -0.71029 0.200664 -0.455766
        -0.240588 1.6124 -1.90525
        -0.268833 -2.41637 1.60722
        1.77758 1.1074 1.86856
        6.04156 -2.84606 -0.153729
        3.26976 2.52645 3.01093
        2.74791 3.99414 1.11087