<?xml version="1.0" encoding="UTF-8" standalone="no" ?>
<VTKFile byte_order="LittleEndian" type="UnstructuredGrid" version="0.1">
  <UnstructuredGrid>
    <Piece NumberOfCells="0" NumberOfPoints="15094">
      <PointData>
        <DataArray Name="velocities" NumberOfComponents="3" format="ascii" type="Float32">
        2.33838 -1.13999 1.2132
        -0.951093 -3.74027 1.32805
        -1.67731 -5.55938 1.61902
        1.05515 0.567896 -7.70924
        -1.77554 -0.217142 2.51023
        -0.0542551 -1.73724 0.356011
        -1.69486 3.02889 3.86499
        -0.847962 -1.81339 -6.69407
        -1.30183 1.35299 2.07765
        -0.835308 4.95236 1.22374
        0.891426 0.433487 -4.67775
        2.37721 4.22469 1.53705
        -0.536322 0.176551 3.04647
        1.22518 4.68025 0.834447
        -2.24561 2.49857 4.68395
        -1.75937 2.72849 1.544
        0.0489962 -3.11887 -6.03742
        4.5302 2.94326 4.93538
        4.25666 -1.67243 -3.64515
        -2.64837 -2.56483 1.75049
        1.86167 -4.76097 -0.155093
        5.32626 -4.83189 2.65438
        -3.22003 -0.0102998 -4.11377
        2.0295 2.47095 4.74925
        2.58161 5.87237 2.19905
        1.63467 0.924273 -0.405364
        4.97954 -1.2098 -3.10121
        -0.465576 0.506958 -3.21558
        5.91987 -2.22656 2.99074
        -1.5175 1.71324 4.02918
        -6.1302 0.0170434 -2.76718
        -3.06587 -5.08328 3.75389
        -2.92688 4.69494 -0.43342
        2.24878 -3.55121 2.76611
        5.83863 3.48471 1.83127
        -5.95941 5.257 2.25244
        3.8944 -1.84228 -4.07979
        -3.91788 -0.869585 5.71275
        8.68938 10.2423 -1.82456
        -1.01645 0.414324 -1.22107
        -1.18123 0.998632 0.57889
        -4.90965 -3.11954 -5.00091
        -2.74739 2.32965 0.341454
        2.5317 1.17718 5.74989
        -6.01033 2.12579 -0.631647
        3.66784 -0.450335 -2.01375
        1.9338 -3.34885 1.55397
        0.769173 -3.90348 -5.02172
        -2.875 -1.6062 -5.20598
        3.86468 1.9446 -1.33499
        1.94266 -9.94689 4.02837
        0.405539 2.90191 -2.05347
        3.42355 1.08419 6.28455
        -3.06117 2.8717 2.3446
        0.946975 -3.92516 3.46527
        -4.31447 -0.0439869 1.60619
        2.54321 0.831821 -2.23804
        0.728688 4.93215 1.13822
        4.17347 1.30286 0.616969
        -5.08036 4.77841 4.31503
        -4.91451 3.69755 -3.88332
        -2.00325 1.3104 -1.96516
        2.23403 -2.89671 -3.23884
        -2.10655 0.563322 -1.72226
        -3.70893 0.819674 -1.86751
        -0.563715 -0.38681 2.32665
        0.119368 -2.58905 2.15879
        5.54057 2.09058 1.17443
        3.74695 0.739821 0.965086
        -0.215894 1.56424 2.93046
        0.618943 -7.66523 -8.49599
        -1.74333 -2.89804 -0.875658
        -1.65805 -2.14005 -1.77285
        -2.78105 4.13862 -7.90903
        -6.84505 1.35383 -1.37453
        2.26159 1.66516 3.79491
        -9.387 -1.05577 -5.10066
        2.78306 3.01901 -1.46506
        -3.98087 -2.80033 6.43663
        0.0579022 0.349326 -1.31075
        1.59777 0.248436 2.62328
        -2.06659 0.0887738 1.80533
        0.287193 1.71992 -5.38578
        -0.302725 2.90212 1.24046
        0.591201 -6.4269 2.03303
        -2.89961 2.58955 2.3927
        2.52956 -0.181015 5.43188
        -0.237131 2.74411 -1.24595
        -2.54325 5.20926 6.0375
        -2.17977 2.31302 -1.94709
        -3.61235 0.030302 4.40766
        -1.3095 4.96956 -2.56332
        -1.56164 -1.99359 6.36501
        0.42423 1.01819 -6.13554
        1.57302 3.10686 7.50788
        -5.81209 -3.36135 3.023
        -6.29963 -0.395995 3.86177
        1.35068 0.3209 -5.86297
        4.15244 -1.98549 1.38751
        -0.959317 2.85277 1.7459
        1.8252 -1.47134 5.46436
        -2.31394 -4.58343 4.12744
        2.86457 -1.16769 -2.6444
        -2.56627 -1.54739 2.34969
        -0.62912 1.13927 0.317258
        8.46672 0.714218 1.4015
        5.60116 6.89344 6.36552
        -1.5786 -3.02404 -2.33565
        -3.35121 3.12619 -1.37118
        0.580717 -2.32474 -2.75584
        -0.744932 2.55181 2.31965
        -2.07675 -1.71305 -0.438109
        -5.0336 -6.29844 0.729927
        1.39577 2.39622 2.37855
        -5.80887 3.95458 6.48797
        1.25554 -3.74153 -6.64374
        -1.63003 -0.824733 -0.354902
        0.882774 1.22775 -4.49433
        5.33724 0.560476 5.86128
        -3.10382 2.71972 2.14429
        2.69598 -1.76722 1.45126
        -7.29495 2.91923 1.16967
        3.12287 0.822212 8.2419
        -3.37818 -1.69706 -0.399925
        -7.09084 0.773758 -0.0388462
        -1.39213 -1.16857 2.3958
        0.235882 -4.16033 1.09687
        -0.160883 -1.1767 0.26551
        -0.146134 -0.378821 1.4482
        0.490053 2.50096 -0.964192
        0.434455 -5.32536 4.9101
        -4.89965 -0.0906142 1.91857
        -3.14968 -0.214153 5.59917
        -3.25386 5.54493 -0.319065
        1.10841 -2.8929 -4.11878
        -1.08976 0.280262 -1.9072
        -5.68247 4.91686 -5.13879
        1.99622 3.435 -1.61547
        4.78243 1.15039 4.28191
        0.804195 -3.23775 8.23392
        -2.6218 -3.33336 -5.20092
        1.69674 0.495911 -2.0076
        -4.11007 -0.969297 -1.8546
        -0.411491 3.74034 3.77081
        1.65582 0.604845 6.31905
        -1.59486 -2.56633 0.153478
        1.38715 -0.462486 -1.12702
        3.47255 -4.87294 -2.86694
        2.10118 -1.83604 10.3718
        -5.76104 -6.67172 -0.70566
        2.69951 1.87623 3.69614
        -4.8419 2.29749 -1.26133
        -3.07288 2.94783 -2.66413
        0.185925 0.819582 -4.77418
        -1.86677 -3.36848 -7.3903
        -3.52307 2.83835 0.462344
        -6.04627 0.406099 1.80442
        -1.56855 -0.747557 0.580891
        -4.50882 3.72824 -4.07164
        -0.992124 2.98531 -2.7688
        -6.20137 -3.71595 1.56417
        -4.24215 0.728757 3.24694
        3.04346 5.0752 4.25483
        -1.94623 -5.81498 -3.28157
        -1.94692 1.42767 -8.11515
        0.399448 -3.07615 2.74547
        0.991995 -1.19867 -4.95205
        -4.38849 -0.364462 1.33881
        -1.41307 1.83742 0.264854
        -1.52679 3.59973 -4.86376
        -3.08811 4.60085 -4.94179
        2.61978 8.86445 3.99975
        -1.60162 1.59954 -4.22028
        -2.84387 -1.52169 2.90244
        1.29976 1.40105 0.3224
        -4.559 2.74893 0.380737
        -5.24842 2.90609 -4.945
        -1.47112 -0.830653 -1.03682
        -0.118623 0.708085 -1.28445
        -1.34186 1.27078 0.561019
        4.43656 -3.33121 -2.01048
        -1.40347 6.37067 1.02995
        -0.801756 3.12528 4.49676
        1.16866 0.145299 -1.06878
        3.51253 2.59631 -2.0985
        -4.13219 -1.34357 1.40312
        -2.34223 2.80066 5.39632
        1.05427 -2.73496 -1.65235
        -7.04677 -3.19141 1.72107
        0.625887 4.65153 -3.9528
        -3.75952 -0.857176 -2.18196
        -2.20582 -5.2517 2.79211
        -0.607616 -5.78264 6.05832
        -0.00253765 7.25304 0.369992
        -0.9722 -3.64787 3.42004
        3.2173 -2.75811 3.24975
        -1.77994 -0.440593 0.946177
        -2.79718 0.85758 -1.11096
        -7.83999 1.70717 -0.00815752
        -0.714899 -2.60919 -3.85055
        3.99444 2.9006 2.3495
        5.24056 -0.574031 0.128729
        2.11476 -6.01905 1.63092
        -5.19023 6.08291 -0.588012
        2.97933 3.20654 -5.1224
        -0.779421 0.666426 2.00274
        -6.9532 -3.64581 -0.931875
        3.70664 6.18591 7.09501
        -0.995034 -0.21566 3.42038
        0.374219 -2.87213 0.383197
        -2.20619 -8.75475 1.73976
        -1.72061 0.672528 -0.415844
        -1.68016 0.414693 -2.345
        -1.76438 1.67709 -5.17722
        1.24968 4.53094 -0.128231
        -1.95253 3.88385 0.665987
        -6.3353 1.30889 2.0004
        -1.85436 -2.50311 4.26
        -2.78858 1.74299 5.36573
        3.9912 0.853439 4.71173
        3.68699 -1.84079 -1.87927
        5.11364 0.038479 2.96267
        3.56814 1.00196 -0.108214
        2.38047 0.85361 -0.0268981
        -6.19938 -2.97569 0.319106
        3.4983 -5.25173 -0.954367
        6.98093 3.74889 -5.03859
        -0.825098 -4.53427 4.37202
        0.992236 -0.733811 1.17742
        -3.10053 1.84312 -0.416988
        -5.42059 5.44767 -3.44593
        -0.105745 2.65741 6.34137
        2.74499 1.55666 -2.79116
        0.509806 -3.34 -2.52538
        -2.07039 6.55408 2.65081
        0.217982 1.28719 -3.44228
        0.435573 3.49539 -1.44122
        -0.280476 2.77024 9.39121
        1.08102 3.32436 1.38073
        1.80526 -1.19645 -1.81696
        1.99254 -0.970299 -0.0333404
        -3.78053 -0.0816647 -1.16732
        -4.27088 -1.27506 1.80242
        -0.937885 -2.51186 2.34608
        -3.98055 -0.212138 -2.10036
        -0.444701 4.31755 -5.16581
        1.03333 4.41415 1.93929
        2.79204 -3.1677 4.68147
        -1.70663 2.3494 1.52308
        -3.13362 -6.6229 5.7908
        0.323219 -2.53325 0.382586
        4.37012 -1.1877 -1.60716
        -2.84648 4.03431 1.70116
        4.6972 -3.08129 -3.11933
        -4.16987 0.245071 7.94846
        -2.98211 -1.89205 3.07273
        -0.967163 -2.79527 -0.517324
        -2.93588 2.48645 2.03108
        -3.28958 2.10186 0.621538
        -0.168258 0.162593 -3.48559
        -0.759356 -2.85553 2.46098
        5.33063 -5.3975 0.30102
        4.93197 8.71101 -3.86794
        -0.963597 -2.72476 0.905732
        2.37179 -4.52488 5.74692
        -4.96199 0.0717174 1.32293
        -4.078 2.13117 7.64396
        -5.03186 2.11497 1.85619
        -11.9578 8.25524 -1.1698
        -0.715563 4.45565 1.73591
        -9.16652 4.43149 1.01901
        0.601252 -3.78778 0.971123
        -2.11704 -0.742252 3.93133
        2.10646 -1.27484 -3.44246
        -2.89036 2.21275 5.94064
        -3.27797 8.20976 -2.71787
        0.491263 -0.874509 0.619635
        -1.44577 -1.13941 -1.20148
        2.07247 3.58964 2.93008
        -3.59935 -3.77103 1.87368
        -0.76367 3.67383 0.71327
        -1.7973 2.39069 5.36635
        -2.07834 -2.39001 2.94369
        -2.15092 -2.55702 6.30277
        -3.09873 3.88739 4.45117
        -3.03064 -0.110319 2.53284
        1.42137 3.29776 0.500115
        1.34704 1.89939 0.185995
        -4.41645 1.75315 -1.33624
        0.437582 -2.48492 3.97322
        -2.58321 2.63768 -1.05208
        -6.91146 0.274254 2.53567
        -3.34862 9.13731 -0.945593
        -3.16502 2.16822 -3.798
        -3.46291 1.98272 -4.61414
        -7.80735 1.33908 -5.73331
        1.4716 1.12023 -2.04711
        -1.35218 -0.15646 1.69712
        -2.82918 2.42588 1.45749
        -1.98764 1.63985 2.61612
        -0.197963 -0.6202 2.52976
        -4.59943 -1.6365 0.161699
        -7.21929 -3.65836 3.38834
        1.79049 -0.536084 0.686883
        -2.17032 -1.34261 0.258843
        -0.511102 0.505575 -2.41284
        -4.36452 1.61619 0.987353
        0.164804 -0.99188 0.689561
        -0.104884 3.11318 5.59632
        -2.90385 -0.986017 0.779074
        -0.437627 3.05665 -0.70035
        -0.736626 0.945705 -1.02375
        -0.20599 1.9155 -0.114977
        -0.362315 -1.49001 -2.59221
        -5.60738 -0.830118 5.26792
        -2.47129 -2.24913 0.103516
        -4.54413 0.831571 0.395545
        -0.0961277 -3.37386 -6.74042
        1.99099 2.20626 3.28035
        -3.59387 -2.25868 -7.00891
        -1.95362 -0.730929 -2.0505
        -0.67831 2.70827 3.30288
        3.00623 6.01145 -7.26969
        -3.99487 -1.19184 -2.27804
        -2.12413 0.0566151 -1.99936
        1.07103 -0.622974 4.898
        -1.1756 5.10109 -1.08527
        1.83907 -4.20701 -1.45215
        -3.5045 -6.81172 1.41527
        -2.85178 -3.79867 -2.52275
        1.75222 2.81365 0.861223
        -2.75429 -0.394855 -0.556073
        -1.28005 0.702474 -1.66999
        2.35128 3.23693 -0.807365
        -5.41938 0.437641 -1.50317
        -0.237324 -0.211665 1.34624
        -2.95937 0.2288 1.8703
        0.0283076 1.95973 0.815232
        -1.40464 -0.669036 -2.68943
        1.97701 -1.3277 -1.63993
        -1.90436 0.636819 4.88215
        -1.87835 -0.355007 -2.44927
        -1.41517 -2.87508 -3.16792
        -0.789667 -1.42085 -2.56101
        0.313585 -3.80158 5.32149
        -1.57712 -4.41 1.40935
        -0.772042 0.459823 -9.84087
        -2.27911 2.65807 3.27714
        -0.394423 1.55146 2.62904
        0.668881 -0.54851 -1.16328
        2.15338 1.1574 -0.448509
        -1.98914 -2.75208 1.68709
        1.82699 -4.79243 -3.26826
        3.9355 -3.77093 0.1279
        -3.42171 1.80783 -3.32683
        -0.810814 0.43003 -3.26257
        5.14668 2.92425 -5.23007
        -3.47155 -0.918318 -0.782311
        -4.48221 -1.4908 -3.92508
        3.06064 -8.79077 1.90113
        -1.08031 -0.791357 1.22712
        -0.00107269 -6.55411 -4.82303
        -0.661829 -3.40882 3.99233
        1.14753 -5.27879 0.330358
        -2.44541 0.942739 -3.27205
        -2.82152 0.530444 -1.26757
        -0.12735 4.97539 0.101967
        2.5245 -2.31096 -3.00527
        -2.89743 -0.409233 -0.77869
        -1.81801 -4.45372 -0.258696
        -2.65731 -4.09742 1.16468
        1.09036 0.73831 1.08828
        -0.133936 -0.150869 -1.0229
        -0.644324 -2.94689 1.96479
        -2.7503 2.8672 -0.790109
        -3.2993 2.03059 3.12739
        -7.64544 -2.31329 -3.45503
        -2.80442 2.52271 1.23222
        -1.42932 -2.26972 -0.686786
        -1.13412 -1.53892 -3.9947
        1.77948 -6.73396 -1.32227
        -0.927003 4.20532 2.44391
        1.05698 -4.57329 -3.94988
        -2.17459 1.87787 2.92348
        -2.17218 1.9121 -7.62908
        5.20713 3.88516 -4.43322
        -1.32608 -4.75497 -2.92478
        -2.06174 5.36051 -0.162179
        2.85565 -0.315666 1.6815
        3.93122 2.45571 2.07386
        -1.83973 0.329224 0.171511
        -4.66291 0.848161 2.94756
        6.77135 -7.21706 -1.76186
        0.867618 -4.04045 -0.598548
        -9.33023 1.35916 -6.68004
        -1.6565 -1.97103 -1.83062
        2.70239 -0.408187 1.736
        -5.47852 -0.716285 -3.18287
        -4.89223 3.51885 -0.541316
        -0.332429 -1.8479 2.65013
        2.86142 -1.5775 1.85639
        -2.95746 -2.66683 -5.00844
        0.576212 -5.46846 -1.06253
        0.731544 -0.468387 -1.177
        -2.27513 5.89748 -1.49074
        -5.36359 5.81938 -4.06857
        -8.21151 -3.32503 -2.2409
        -4.01585 -4.57658 -2.89042
        2.00246 2.29864 -7.41958
        3.68679 5.12265 2.90975
        -5.32751 -0.985075 5.64526
        -5.96221 0.444604 -1.15452
        -2.2593 -1.42289 -3.7821
        -7.34956 1.28403 -1.18088
        0.889178 -0.547872 5.10629
        0.789717 2.16222 2.08449
        -1.65547 -0.612143 -0.124012
        -2.47034 -5.82634 1.8266
        3.73807 2.39702 2.44655
        -3.48385 1.64482 -2.45398
        -5.60538 0.294511 2.59971
        -1.46578 -1.13857 -9.84056
        -0.344289 -5.0366 -1.58235
        2.16973 2.11666 -0.296392
        0.663594 -0.273233 5.4379
        -5.71079 1.56109 -1.79351
        3.34133 4.67271 -1.94506
        2.53055 0.183712 8.94288
        -7.01955 2.90926 -1.66521
        -5.25007 1.30815 2.84446
        0.500482 1.86055 -0.601177
        -4.5883 0.593932 3.66962
        -4.71713 2.70006 -4.74195
        -1.69282 -5.27088 -1.84788
        -8.12129 -2.33138 0.205685
        -1.57051 1.44306 0.00983576
        -2.9749 -0.645866 0.84689
        3.09251 3.39672 -5.00985
        1.68665 4.52726 -9.33548
        1.01314 -3.75517 1.40177
        1.17696 -1.43026 2.50209
        2.81988 -1.38881 -0.331579
        2.48405 0.937333 0.753332
        0.186471 -2.07045 -0.360572
        -0.338682 2.86191 2.45685
        2.9784 3.10234 6.79947
        2.31034 1.76383 6.72667
        -2.06589 5.34899 3.34629
        -3.4063 -1.75448 -2.56161
        -0.827694 -0.22116 -0.931477
        0.055453 -4.97883 4.01473
        -1.16927 1.6669 -1.71449
        1.03635 -2.57001 0.546776
        0.202678 3.75973 -0.216114
        2.30701 2.7273 -1.41151
        -2.18414 -1.3381 6.37161
        -0.315164 0.933267 0.0134845
        1.51194 0.3436 3.34235
        -3.06579 0.545812 -0.637579
        1.53322 -2.4513 -0.159607
        -1.01421 -0.536292 -0.552339
        0.062981 -1.6783 2.07178
        -10.2072 -4.54279 -1.98029
        -0.794345 0.618053 0.417629
        -1.35648 4.75157 1.06149
        -0.240563 -6.61086 -5.05374
        -4.36895 -5.24918 -4.04631
        2.20689 6.5267 4.81567
        0.922342 -0.0241336 -0.850541
        3.54807 0.255129 4.48303
        -1.83949 -2.53616 3.05568
        -3.38007 2.18448 2.1803
        -2.59062 2.17499 7.52449
        -4.04385 1.39348 0.14426
        -0.0235345 2.85864 -1.35256
        0.986056 0.631693 9.83559
        -7.9766 -0.75809 -2.19665
        5.75065 3.05755 -3.04851
        -0.669218 2.77604 -1.33197
        1.47846 -0.141224 1.84783
        -1.5478 -3.60747 1.48478
        5.87236 0.729261 4.98178
        0.146321 -4.38891 -4.27648
        2.10374 -1.36302 -1.89814
        -3.72456 5.12441 -0.417224
        -0.28114 0.19676 3.2458
        -2.93305 1.1111 -3.90317
        3.21169 -1.93096 0.0513784
        -3.3636 -0.268998 1.14831
        -4.03761 -2.66532 3.63937
        3.75422 1.41921 -0.837324
        4.94814 -0.240613 4.6001
        5.53918 0.959954 -5.7964
        2.20678 0.356162 2.70261
        -1.65457 4.41912 -2.51449
        -6.28099 0.311157 1.54947
        0.639409 -0.135277 7.43085e-05
        4.57403 -1.26917 5.43066
        -2.97161 3.58861 -0.0562219
        -0.0253257 0.766883 -3.09302
        -0.852907 1.78416 1.5863
        0.671048 -0.549475 3.11324
        -2.93214 -0.909337 4.15242
        1.66204 -3.11386 0.350426
        2.24479 -0.647635 1.43028
        -5.49292 -0.780874 1.35511
        2.05968 4.89888 0.941715
        -3.43336 -0.693815 1.24476
        -4.30246 0.0584916 0.67363
        2.51477 -2.48479 -3.44461
        -2.13424 1.33382 -3.77685
        0.70407 -1.50024 0.183548
        -3.08528 0.00441938 -0.639102
        -2.26654 -2.12837 5.07993
        1.48648 -8.44195 0.0415459
        2.29685 5.17272 3.13925
        2.36467 0.0353202 -0.506491
        1.68275 0.340251 1.48508
        1.59816 1.963 -1.80159
        3.93824 -2.21401 -8.32421
        3.19235 0.531521 3.08446
        6.03957 -4.44804 -1.30224
        4.28541 -1.70891 -2.22096
        0.986813 -2.43957 -2.50701
        1.00142 -0.46984 0.736202
        3.97861 -0.834975 1.04124
        0.123703 -3.85815 1.94855
        3.46635 -0.089518 -1.61843
        -4.84214 -3.75542 -3.4273
        -2.73574 3.4926 2.78892
        3.57929 3.19611 2.96947
        1.44246 -0.813936 -0.266754
        -1.56324 -2.14785 1.19289
        -3.93966 -3.0733 -3.05031
        1.51895 3.4985 -0.822027
        -1.04031 -2.88487 -2.8755
        -6.03367 -3.36648 -1.54908
        3.45373 -4.69233 -0.564777
        -2.42017 -3.40864 -0.944652
        2.182 1.8464 -2.79472
        -3.35659 1.03636 -2.64601
        -0.434686 0.402081 0.772241
        -5.64218 -4.36561 -0.574534
        -1.47725 -0.341894 -1.21626
        -3.56684 -4.6471 -2.67685
        -1.46419 0.885899 0.842247
        0.567312 2.20154 1.88415
        -9.91148 3.69712 -1.90934
        -2.39465 -5.15642 3.38519
        0.115638 -1.67607 -2.98778
        -2.88962 -3.02882 -0.517634
        1.06412 -3.38654 0.918234
        4.43799 0.251829 1.50832
        0.145759 -1.80172 2.31643
        1.75266 0.870299 0.674775
        -1.04743 -5.57806 3.53414
        -4.41688 2.68366 5.61984
        0.662031 0.586859 -0.171063
        3.13483 0.244425 0.367475
        0.373274 -3.02767 1.26642
        -0.0255674 -0.649608 -2.72534
        -3.4633 -3.65573 -0.0035082
        -3.67303 0.967623 1.7252
        -2.47925 -2.53044 1.85539
        1.79214 5.02141 0.0494343
        -2.3071 5.78168 3.06436
        3.52729 -0.526165 1.91038
        1.92996 -3.99093 -0.790623
        2.08861 -4.29196 0.722435
        -1.62692 -2.93189 -0.272101
        0.713999 -2.36805 0.915712
        0.872195 -0.215405 0.114012
        6.73636 -0.203928 0.505239
        1.11775 3.5754 -1.01351
        -1.17449 6.48125 2.30981
        0.405883 -2.33724 -0.392753
        -1.13976 0.848782 2.52207
        -2.65681 -3.34066 1.25703
        6.0838 -0.51579 -0.0419651
        -0.144227 -2.1653 -1.1468
        1.55001 -0.787328 -0.854656
        -0.204738 -2.48295 1.05944
        -1.46697 -2.7424 -0.532488
        -0.0924643 1.69674 -0.780132
        2.97757 2.7758 4.59822
        2.09097 2.43743 3.76721
        5.24523 1.99853 -2.07496
        -2.13222 -3.0152 0.432964
        1.95057 -0.756668 -2.16529
        1.78662 0.53584 -2.89694
        3.96128 -2.4583 -0.791285
        0.514274 -0.362603 1.84048
        -1.86975 -2.73059 6.72102
        -2.22197 -1.21879 0.876155
        1.0766 -0.930963 1.86389
        0.196307 0.153018 5.0997
        4.49052 -2.39815 -3.31068
        -0.298318 -0.208301 0.109355
        2.88099 -0.386038 -1.34645
        -0.311447 0.0539953 -1.73298
        -0.596745 -1.0759 5.78427
        -6.04002 1.26802 3.04282
        0.861127 -2.50118 1.45244
        4.60332 1.77324 -1.05135
        -2.74309 -1.05136 -3.29792
        1.72524 -1.92793 -2.86212
        0.692917 -0.265009 -0.979866
        1.88369 -2.45626 -0.936662
        2.46162 -2.00138 -3.06379
        -0.513093 0.358111 -2.77403
        3.83501 -1.13359 -0.89407
        -4.23937 -4.17543 -1.74294
        0.050646 3.81225 -2.67561
        2.94041 -0.411479 -1.14934
        -2.16016 4.37966 -2.26831
        -1.26722 2.97937 0.236263
        6.39073 -5.25432 -2.17705
        2.58695 -3.47932 3.81674
        -2.94936 -0.102256 -0.340973
        -2.08918 2.04877 0.317367
        -0.522543 -0.523875 0.632755
        1.71585 4.37608 0.195419
        -0.661566 2.36612 -4.17426
        2.54274 -4.17464 -0.66909
        2.43684 3.7258 0.638556
        -0.132469 -3.48311 -4.28299
        0.311318 5.28275 -4.29073
        -1.28106 -3.5289 0.358032
        3.5193 -1.3741 1.07022
        10.1636 -2.32612 -2.436
        -0.921355 1.75837 0.266801
        4.69195 -2.80031 -2.02482
        1.54353 -2.02048 -0.400967
        2.47909 -5.11329 1.90083
        -0.676309 5.18646 -0.853659
        -2.0277 3.30089 1.55255
        -2.95971 3.08536 0.36743
        1.96684 -0.491506 -3.08094
        0.441247 5.22335 -7.80878
        -0.499872 1.66867 -2.07093
        4.02179 -3.75626 -2.16367
        -3.65426 1.7754 -1.01452
        -1.11824 -0.271233 -6.38998
        0.113033 1.34481 -0.911557
        0.370628 -2.22976 -2.07431
        -4.52067 4.95174 1.08438
        -2.14896 -2.30069 -0.472334
        -1.80026 -4.98741 0.843122
        -4.21536 -2.3786 -2.18235
        -2.85648 1.36459 -1.43387
        -4.02547 -0.371486 3.87822
        -0.364357 -0.655893 0.724767
        -2.26231 -2.05864 0.303999
        1.04461 -5.29317 -0.387463
        -1.55063 -0.854762 -2.44389
        -3.86474 0.330554 3.63088
        3.41615 2.01002 5.46347
        -1.21333 -1.72658 3.05781
        3.19549 -2.04476 0.565681
        -2.68764 2.8296 -0.899954
        2.92784 2.34015 4.90874
        -1.92207 -2.0331 0.58497
        0.0830169 -1.32823 1.97421
        1.01125 2.34703 2.30823
        -0.963178 -4.46138 0.677684
        3.36428 -3.90567 7.13826
        0.40402 0.873309 2.14253
        4.80978 -1.85029 0.747068
        1.05761 -3.23652 -6.35979
        -0.28001 4.57127 1.27328
        -1.37541 -4.31483 1.18212
        -2.36414 -1.91151 2.18075
        1.62175 1.79483 0.35041
        0.959274 -3.03775 1.1635
        -1.63577 -3.43242 3.3066
        2.46694 -2.57379 2.76062
        -1.69854 4.79893 5.27897
        0.585955 2.07128 -3.53504
        3.27057 -3.11468 0.107983
        -0.785873 0.662142 4.52085
        -2.7538 -0.367494 2.74162
        -3.37653 3.99504 -1.66893
        -0.656796 -0.761398 -0.735263
        -4.58643 -0.964528 -4.82415
        0.41079 -4.91684 5.52736
        4.02669 -5.82754 0.280797
        -5.72352 2.26739 5.66576
        -2.35317 0.0847869 3.7971
        -3.05919 0.231751 1.71566
        -4.29213 1.76874 2.30238
        -0.894814 2.3776 -2.4002
        4.03924 2.12983 -5.25017
        -0.548526 -2.13658 -5.75273
        1.23486 -5.41931 -0.117707
        -0.793322 1.88046 1.86297
        0.562663 0.760277 -5.92158
        -2.52127 -2.76668 1.11482
        1.05346 -2.00095 -3.15003
        -0.0458242 -4.23914 0.642142
        1.95828 -3.38198 -0.871761
        -0.654324 1.22681 3.52862
        5.48283 0.000709143 -1.96772
        4.62682 1.3314 -2.65982
        -6.54676 -4.62527 1.33561
        -2.60316 4.73328 -6.38113
        1.35789 3.05706 0.933846
        0.337789 1.91073 -1.98931
        0.627328 0.465987 2.38696
        0.967407 -1.23005 -3.45617
        -2.70212 -5.73411 1.2413
        0.512766 3.54101 2.14742
        -1.44483 -0.274304 1.18447
        1.50845 1.66916 -5.64678
        0.0936781 0.569394 0.245249
        -3.03449 1.38523 -6.16364
        0.871543 3.70453 2.38509
        2.79055 0.890048 -2.48127
        2.30445 -1.53211 -1.63296
        -1.94694 6.24478 -4.42102
        -0.756611 1.32123 -0.340361
        4.22718 3.69853 1.90176
        1.03065 0.216604 -2.55189
        -1.46154 -2.10085 1.65662
        0.771409 -3.63248 -1.60873
        -1.78131 5.72289 -0.174248
        -1.667 -2.52017 -0.163491
        3.00354 -4.64986 0.0177806
        -0.344039 -4.42571 -0.986719
        1.63437 4.3297 -0.41154
        -6.4859 -4.75638 1.48772
        -1.7022 6.04802 5.47093
        -0.0582898 -0.0935145 3.05993
        -4.14194 1.05576 7.36834
        -1.92837 -1.13028 -4.60171
        0.44182 -0.857045 -1.72943
        -6.6592 4.37757 0.254282
        9.35409 3.01065 -6.32944
        -1.40516 1.70141 -2.01826
        -1.52547 -1.64899 6.09718
        3.0931 -2.87389 -1.13361
        1.02055 -1.37976 -4.07269
        -3.5648 1.82637 -2.16347
        1.97762 -0.115254 -1.88855
        -2.43608 3.40278 5.3282
        0.466316 0.236061 2.12288
        2.97357 0.0383805 -0.730893
        2.41854 -0.338373 -1.44756
        -4.94315 2.36652 2.53745
        -1.50849 5.70694 -1.79296
        -4.50555 1.78195 2.09478
        2.10101 3.98003 -0.363547
        1.36659 -3.71681 0.716965
        0.747429 -2.36673 3.0107
        2.03058 0.0257854 -5.18655
        -0.590627 4.95761 -2.82127
        4.64059 3.73395 -2.25366
        3.34849 9.00878 3.1337
        0.758437 -2.04177 -2.23238
        1.88995 0.705405 0.717579
        -0.404497 -3.53756 1.25357
        0.997543 0.212804 1.83762
        -0.972046 7.07506 -0.813376
        -2.62627 -3.53447 -0.86041
        3.3037 -0.374479 3.81175
        1.76884 -0.490774 -3.55163
        1.65332 1.6913 2.94154
        -0.778767 -3.82621 1.76739
        0.573545 -0.524099 1.53969
        -2.05431 1.84054 3.10366
        -1.58878 0.77416 -1.22169
        -2.50915 0.912357 8.14971
        -9.51269 1.96188 1.17657
        5.55572 -0.110742 -5.81136
        -0.0311746 2.05503 0.240438
        8.50751 1.60336 4.12543
        -0.592564 -4.06473 -1.35052
        -0.10894 -2.59978 -4.44293
        -3.89376 4.99237 -5.1972
        0.628775 -2.98874 -4.05961
        -0.434172 0.029105 -7.51574
        -2.80579 -3.57799 1.99015
        -0.462842 -4.15528 0.71967
        -3.02687 4.26221 -0.0357312
        -4.46517 -1.09441 -1.97056
        -1.90361 -3.56997 -0.60735
        0.469874 2.68999 8.811
        2.06067 -0.316037 1.74204
        -0.321539 -1.91459 2.93609
        2.43002 -5.67406 0.244981
        -5.15271 2.14859 2.9589
        -0.275087 -3.43845 2.27062
        3.94087 0.414145 -3.4787
        2.82737 8.73839 0.169909
        0.704286 1.56404 3.22434
        -0.927788 3.09439 -7.48475
        -5.91868 1.74216 -4.51755
        -6.61692 0.841071 1.64129
        -3.03386 1.59993 -4.42115
        -5.43359 2.47615 -0.0169989
        -7.02252 -2.91936 1.79642
        -2.12605 1.37658 1.96005
        -0.0156248 -6.65584 4.6704
        -3.58431 -4.31627 -0.922898
        0.607971 -5.85821 -2.42106
        -2.04535 0.782351 -2.16873
        -1.29876 -0.233879 -3.9884
        -4.15623 2.8939 -7.6965
        0.898176 -1.93293 4.78848
        -1.48774 -0.869172 -3.23927
        -5.97068 4.92189 1.95946
        -1.43085 1.59517 -1.3342
        -1.81923 -0.950229 1.61801
        -0.338373 -1.23229 0.36658
        -0.0842167 3.18008 -3.48117
        1.93191 -1.2044 -4.19386
        -0.203459 -2.59468 -1.13423
        -0.144768 -1.9717 3.79848
        -6.72226 -8.81255 -5.06923
        1.18035 -3.72764 5.15806
        -2.48111 -3.12265 1.30524
        0.012752 -4.96899 -4.83262
        -3.73608 -4.34115 -7.68403
        -3.24606 0.995887 6.89532
        -3.90761 0.373404 3.26639
        -2.60231 -6.89217 0.33657
        4.69381 -1.27754 4.4865
        -2.90197 3.03879 0.810889
        2.94825 -5.64347 0.841533
        2.60301 -1.57832 0.253342
        3.1799 4.86328 1.12408
        1.03832 -1.57679 -0.53028
        6.4856 4.15224 3.88627
        3.48107 0.912177 -3.23228
        0.828736 3.01144 -1.1774
        -0.894545 -1.79835 -0.455002
        -1.29656 -6.88982 -0.787364
        5.86112 -8.19809 6.42261
        1.62646 2.45505 -0.933075
        -2.98176 0.719734 2.135
        -2.21612 -0.649081 -1.51831
        0.646096 -3.64589 1.02039
        1.92203 2.19459 -3.98391
        -6.16182 -3.94553 -5.22807
        0.734529 6.99688 4.34424
        -0.280846 -0.0303759 -6.40441
        -2.87786 1.79826 2.853
        0.493363 3.39213 6.34163
        -3.99577 -2.82596 1.611
        0.011929 -2.81988 2.06699
        1.32854 3.9104 3.65747
        -3.7156 1.39563 1.87114
        -1.85247 1.92677 4.12227
        0.593773 -3.54831 3.31287
        -0.193064 -2.83714 1.84455
        -5.94518 4.93018 1.43606
        -2.72464 0.229319 6.06081
        0.14362 -3.27776 -4.01815
        3.70874 1.36225 -2.9355
        0.269636 -0.756571 8.96276
        -3.14568 1.31602 -1.41615
        -3.91603 -2.92658 0.412279
        2.88445 -2.23599 0.725101
        -8.38896 -4.49628 -3.72099
        2.38705 -7.6963 -1.92341
        2.64462 -1.05031 4.46853
        3.39165 0.42047 0.849039
        0.065573 -3.11282 2.63872
        1.7055 0.890232 2.55755
        -9.26528 0.683271 -0.931004
        1.66375 2.80564 1.22217
        2.16812 -3.01775 0.354795
        0.548652 -2.25986 4.30043