<?xml version="1.0" encoding="UTF-8" standalone="no" ?>
<VTKFile byte_order="LittleEndian" type="UnstructuredGrid" version="0.1">
  <UnstructuredGrid>
    <Piece NumberOfCells="0" NumberOfPoints="15094">
      <PointData>
        <DataArray Name="velocities" NumberOfComponents="3" format="ascii" type="Float32">
        -7.05937 -4.17183 -3.85807
        0.802606 1.04453 3.60432
        -2.88415 -7.71846 -2.27717
        1.64329 -0.544726 -1.40455
        1.32728 -0.0574223 4.1181
        -5.77205 -3.28115 -2.31037
        -2.46796 -1.87088 -1.73383
        2.58011 2.60736 -7.48639
        1.48665 3.36159 0.716706
        0.113447 -0.202304 -1.56634
        -6.68465 0.826806 -3.48752
        2.1536 -0.690976 2.91265
        -0.0982938 4.34134 3.17217
        -5.07996 -2.45921 3.79187
        0.255979 -3.03573 2.36862
        -1.79123 3.60659 1.684
        -3.16662 -2.81282 -2.31854
        0.550345 2.3337 3.25064
        2.65752 2.06001 -1.80643
        0.0172256 3.57962 1.72909
        5.80095 1.00111 -2.73493
        3.31559 -2.47639 -2.342
        2.29483 -1.88511 1.57926
        -0.233287 1.22247 -1.71857
        1.97435 1.28157 6.18768
        3.91683 2.43523 3.19201
        0.44616 1.38309 5.44989
        3.54864 -4.42619 -2.29987
        -4.79655 -0.729484 -4.93107
        5.92752 6.66099 -0.0916299
        -4.75184 -1.8604 -4.69549
        1.46587 2.49685 -1.15479
        4.11892 1.34051 1.52642
        5.314 -0.0348616 3.44883
        -1.04455 -3.0564 0.390237
        -1.69189 3.35015 -2.16688
        -3.51936 3.28862 5.08155
        -2.60284 0.203441 3.07184
        -1.65242 0.777947 0.147536
        -0.878221 5.70986 -0.378318
        -0.458118 -1.46021 -0.93332
        -2.59624 3.98448 -5.42374
        -1.62038 5.24608 -6.39152
        1.2575 -1.8258 1.05813
        5.9164 -3.70422 -1.05869
        -5.18645 4.08016 -0.479843
        8.17155 0.575943 -2.57008
        -5.31384 -3.48644 1.67178
        -2.04722 -1.5454 0.871385
        -0.682579 4.28136 0.279373
        -1.78859 -2.7058 1.28128
        5.04477 1.67313 0.115407
        -0.989022 2.19461 1.18966
        1.70345 -0.134326 2.4691
        2.18229 0.899163 2.78931
        1.67925 -3.89647 -4.5808
        1.45935 -5.37818 5.86321
        -0.154566 -2.90518 -1.75639
        -0.966379 1.46559 -0.208109
        -2.13652 3.82847 -0.56596
        1.65198 -5.29331 -2.9368
        2.73755 6.82679 0.745539
        3.87334 -0.637816 0.727443
        -2.38577 -2.31731 1.78597
        0.960357 -0.0641022 -3.27574
        0.383511 -2.36624 -0.579858
        0.479938 1.32029 4.14551
        1.85704 3.89535 -1.8533
        1.66927 -1.8616 0.675037
        1.07414 -3.37663 0.584459
        1.71972 4.92012 2.10106
        4.26402 0.158811 -0.266996
        -2.22182 7.06625 -1.64375
        -2.90246 4.0786 2.11197
        -3.65346 -0.747916 1.29758
        1.85124 -4.63236 0.117054
        -2.61666 -3.88283 1.1628
        -0.783583 0.0951045 5.18465
        3.17236 1.30627 0.182887
        -3.74894 0.108318 0.196095
        -2.28754 3.3355 -0.986463
        1.9432 1.66385 -3.08628
        2.14919 2.6334 1.97223
        -4.72989 2.55088 7.64379
        0.825108 4.49234 1.50653
        7.38002 2.65864 6.32442
        0.9696 0.371066 6.17621
        5.60197 -2.78909 -1.59181
        -1.40571 0.591415 1.75998
        -1.20085 -0.606594 1.03594
        2.54507 1.65718 1.7584
        2.72074 -0.849256 1.54982
        3.32833 6.51628 -4.59445
        0.882259 2.42249 -0.530301
        2.95688 4.00034 1.38456
        0.989483 4.88671 2.18473
        0.231149 -2.23023 1.17327
        5.92422 1.63295 2.64773
        -1.15004 -6.89975 -1.28962
        -1.81497 1.03489 -1.46229
        -1.8391 0.643066 2.79846
        2.0751 1.36063 -1.05748
        2.20737 -7.06687 1.77123
        5.57259 -1.99666 -5.05629
        -3.00592 7.23798 6.09841
        2.0004 0.631838 2.67518
        -0.910592 2.72407 0.886849
        3.06794 0.144545 -1.41628
        2.02868 -1.27072 -1.60181
        0.864461 -3.92237 -1.03973
        -1.3754 1.24518 0.934171
        -1.16027 0.842265 -0.794501
        -0.0588041 4.51193 2.54664
        1.96606 -2.79344 4.31905
        0.410933 -1.12393 -2.70356
        -1.86072 3.13043 4.29931
        1.7503 1.47162 -2.94285
        1.7731 -2.74905 3.67571
        -2.1598 2.85879 2.82103
        -3.6242 6.64068 -1.32199
        -2.56146 -0.0105913 -4.37576
        4.40866 -5.60536 0.746319
        -0.770671 -1.03771 -3.35083
        0.895849 -6.58101 -1.6551
        0.322844 2.33262 1.65338
        -4.13831 -1.79104 0.270079
        -2.59775 2.005 1.12978
        -3.47316 -1.17315 3.47795
        1.46259 -4.91402 1.70825
        3.51295 2.99633 1.45312
        0.362305 4.68854 4.56805
        0.469141 1.93996 -1.01323
        -3.34303 -1.67037 2.56011
        0.680869 -2.58196 0.679893
        -0.0592813 4.42199 -0.256045
        2.74344 -1.57967 -1.9099
        1.29086 -1.25816 -4.39957
        -2.99628 1.0022 -4.03853
        3.80871 1.60532 2.00886
        3.80051 -3.77406 2.56134
        -2.97016 -3.1469 2.32547
        1.10034 -2.01455 0.690554
        1.90537 1.41414 3.5974
        -4.54909 -1.16103 1.71621
        -0.485876 2.84794 1.47031
        -0.910735 0.711347 1.15916
        1.79339 2.45998 -0.369292
        2.81408 -1.66664 2.15765
        5.15689 -3.50045 4.16455
        -0.0362885 -3.64136 -0.619432
        3.33092 0.257874 -2.28974
        -2.75518 5.89535 5.47665
        3.34089 1.39746 -5.23129
        0.566054 0.382914 3.688
        5.47873 0.628216 -0.1566
        1.12738 -4.6228 1.81877
        -4.54929 -0.986683 4.42397
        -3.28741 2.26503 2.31318
        8.70307 2.2264 1.20585
        1.55475 1.50786 -0.178701
        4.49382 0.520524 -1.72516
        0.917467 2.64966 -0.883769
        0.72647 -4.11132 0.556486
        2.5086 -2.81991 -5.21015
        1.68257 3.98869 -1.47142
        6.3266 -2.87891 2.81192
        -3.63422 1.14975 -1.55966
        -2.5845 -0.477241 5.41682
        1.73838 -2.16643 4.67644
        0.603087 1.37359 1.23958
        5.48269 -1.50437 -6.36365
        -0.0704948 -0.64275 -0.661637
        -2.41392 -2.03606 -0.401775
        -2.01611 -0.455635 -3.81451
        2.95952 7.89072 -1.52822
        4.36471 -5.63075 3.54662
        -0.0371559 -3.69792 -1.55063
        2.75306 2.47102 0.786254
        -1.68467 6.33176 2.52445
        1.66449 -3.28779 2.40582
        -1.34535 5.4278 6.40354
        -2.84929 3.59424 3.65589
        2.40391 2.19683 2.32314
        7.15593 0.675914 -0.955273
        1.85324 3.73249 1.28731
        0.705221 0.595834 0.59981
        -2.35951 4.16596 0.0168403
        -1.50883 -0.505931 7.72644
        6.6312 -0.50236 4.9049
        3.73356 -3.36534 2.11948
        7.157 -0.118768 0.506398
        0.145132 -0.589082 2.85418
        2.42351 -6.03121 6.53433
        2.1378 3.49527 -1.12121
        0.584796 1.2108 2.18096
        4.60296 3.6297 -1.77523
        -2.41121 -0.923915 6.57364
        4.10368 0.759092 -1.36948
        -2.49938 -0.114225 2.13422
        -2.88015 -1.52441 -3.26872
        -1.1288 -2.40881 3.11319
        -2.75058 -1.15765 -1.59131
        -3.03534 -3.50517 -1.99947
        2.09634 3.64995 -1.04401
        -3.56095 -0.253591 2.56224
        2.40405 3.11731 -1.95333
        -2.71414 -2.69386 4.31249
        -6.22695 5.34252 3.37431
        1.13427 1.43624 2.48427
        -0.196421 -0.189798 0.583774
        0.635452 5.2695 -0.152209
        -2.82595 0.766879 -1.98125
        4.03866 3.05687 5.16876
        -2.69514 -0.0522291 -0.259991
        4.17663 -0.409817 3.10183
        4.19062 2.85736 7.14686
        3.33279 -5.27797 -0.52643
        -5.242 3.95747 0.213756
        0.462558 2.31219 -0.669888
        5.02741 -1.01186 -1.47745
        -0.432924 -3.3247 -2.22498
        -1.14782 4.19367 0.256269
        2.91684 1.53864 0.789276
        -0.286367 -1.1661 -0.307779
        -1.0523 1.7795 -0.827189
        3.5183 0.0647824 0.114242
        2.92423 1.99782 1.64848
        0.383324 -0.64865 3.12294
        -0.199185 -4.05063 5.43475
        -1.68626 -1.6561 -1.49085
        1.59769 -1.01553 1.59016
        2.98239 1.44021 0.0237754
        -0.250953 -3.56225 2.05619
        0.184109 5.46096 3.06247
        1.12966 1.60258 -0.839388
        0.700902 2.30694 -2.66406
        0.537138 -1.44105 0.99756
        -4.21597 -3.90568 -0.405626
        2.34375 3.03002 0.292892
        0.637899 0.567747 -1.0494
        -1.61049 0.0334983 -0.0860766
        0.325531 2.90832 0.121883
        -1.5734 3.95033 1.36211
        -2.41374 2.26421 -1.37921
        -2.04757 3.22247 4.73154
        -3.53871 0.575896 -3.45998
        0.489532 -1.70857 1.09979
        -2.09623 1.76914 0.919256
        -0.0368326 0.506806 0.324763
        -3.21101 1.15066 -2.10025
        4.29718 -3.74691 1.00562
        -0.687521 0.633165 -0.655483
        5.42862 0.0253224 0.626349
        -0.197134 2.99111 3.15685
        -0.0838745 1.93134 2.25632
        -0.12025 -0.582059 -1.8101
        1.91826 6.34499 -2.1928
        1.07042 2.54789 -3.92101
        -1.28593 1.8192 -0.579473
        1.97485 0.715229 -1.36938
        -4.74173 0.215104 0.1506
        5.85707 0.330027 1.90077
        5.36396 -0.273343 -2.12354
        -1.83152 3.09168 2.67723
        -4.94644 -3.94347 -2.23969
        3.3243 0.318365 4.79881
        -0.737224 2.11095 3.56314
        -0.682095 -0.585987 -1.31618
        -0.297567 5.89732 -1.53624
        2.69732 -1.42688 2.43616
        -1.74959 -0.677399 4.42857
        2.50699 1.22606 -3.25187
        0.692107 0.099956 -1.32286
        2.80436 1.29028 1.3766
        -0.502096 1.82579 0.751432
        -0.134271 2.43979 0.329923
        -1.5434 -0.0806037 1.86603
        -4.26084 -1.09204 -1.91752
        -1.02239 -3.94611 -2.78682
        5.30158 5.79897 -4.46675
        3.59855 1.12229 0.263584
        -2.18893 3.51333 -5.66291
        1.98617 0.332661 -1.04408
        1.97854 1.60433 -0.083488
        4.04309 1.05344 -0.815895
        2.28743 1.26455 -1.8125
        5.16605 -4.38728 1.7137
        -2.79552 -0.180944 3.24578
        -0.286415 -0.296582 5.88045
        0.609484 3.66135 -2.8738
        -4.94209 -2.18782 -1.03807
        4.48914 -1.83966 -1.54714
        -1.32676 0.763634 -2.48627
        -0.920406 1.73351 0.72778
        -2.1593 0.758255 0.708837
        -0.757491 -0.733586 -1.10532
        -2.24228 4.71237 4.58448
        -0.25728 4.87973 -1.04658
        2.66993 2.47653 -1.55088
        -2.83301 0.907958 0.553851
        -1.79803 4.85862 -1.57129
        1.81338 1.61998 0.525614
        -0.283581 -3.36181 1.05813
        1.34296 -3.57309 2.34758
        4.00022 -3.84178 2.97994
        -0.687846 -0.115819 -0.488746
        0.379655 -0.253447 1.04695
        -0.846496 0.193843 -0.824286
        0.538342 -3.18741 0.510184
        3.47768 0.217988 1.50849
        -0.128535 -1.67184 6.22518
        -1.44291 1.70527 0.791504
        2.03298 4.24217 1.3646
        0.868395 -2.29373 -5.19899
        0.586055 -2.40702 4.82802
        3.80728 -6.45783 0.467006
        -1.19941 2.25822 0.401992
        2.08483 0.655453 -0.327473
        -2.16632 0.689114 -0.63442
        2.40645 -1.93374 0.834847
        -0.276969 1.89751 5.27214
        -3.64271 2.77428 5.96883
        2.37091 4.41125 0.36286
        -3.43784 -2.42161 -3.72926
        1.46188 -3.87697 -1.21617
        -3.57823 0.854179 -2.68563
        3.58606 3.26684 -0.0646703
        -2.24389 -1.19686 -0.446822
        -2.04631 -0.649074 0.0991452
        1.15298 -1.06247 -3.45312
        2.90703 0.882078 -6.09147
        3.21502 -0.695603 -0.236611
        2.55168 1.60278 -1.18667
        1.64586 -2.5589 2.91463
        -0.5115 0.837448 2.85806
        -3.62125 2.39853 -1.27671
        -1.1905 1.75573 -2.90873
        -0.853122 1.84329 -1.35844
        -1.61121 -2.37438 -2.32403
        3.75408 1.40369 -0.778969
        3.89622 3.98457 1.67017
        1.02098 2.4086 -0.865016
        4.32359 5.40668 2.26574
        2.9543 0.569868 -1.28116
        0.719934 0.304911 1.33404
        0.302791 -3.54654 1.63812
        -1.249 1.02428 -4.19419
        1.5504 -0.00160764 -2.22077
        -0.935515 1.53183 -1.31919
        0.120004 -0.232945 -0.845125
        3.6871 2.53325 2.80352
        -2.82621 2.01595 -2.75455
        -1.0889 -1.50025 -0.867397
        1.02003 -1.78006 4.13044
        -2.30447 -4.21355 2.81016
        1.8077 1.4312 2.52893
        0.364174 2.09197 3.79687
        0.276399 -1.60039 0.0201244
        -3.23012 -4.25294 1.0353
        -1.10442 -1.06125 -0.0517963
        -2.53699 3.91505 -1.2476
        0.271347 -1.49101 0.37992
        1.85662 -1.36759 1.95252
        -1.09467 -5.26886 2.06347
        2.39201 0.417712 -3.84678
        0.105709 1.23121 1.47558
        -3.24393 2.69932 1.48267
        4.34628 2.56008 2.11711
        0.95448 -0.729187 -0.624626
        -1.79641 0.432473 3.56588
        0.100675 3.65653 -2.27597
        5.0484 -3.87169 1.89653
        3.64184 3.56334 -0.86779
        -1.90696 2.87894 -0.269086
        1.41072 2.09364 -3.55449
        5.52529 -3.69439 0.653397
        4.17456 -1.05647 1.02946
        3.60181 1.76382 -2.48861
        0.0667722 -1.0205 1.11439
        2.841 -0.99083 -1.96662
        -0.560626 -2.24486 2.22124
        -2.14543 2.85551 -1.67046
        0.770355 -1.01929 2.03959
        2.6784 5.7691 -0.620558
        1.26711 0.097637 3.63337
        -0.1205 -1.30516 -2.12075
        2.07457 -6.11532 -1.10227
        -0.341671 0.0795207 2.57914
        3.57644 1.93773 -0.309677
        1.10578 -0.116058 4.22857
        1.29672 6.92831 0.437632
        1.90607 -2.17818 0.623289
        1.00959 -0.889964 2.45718
        1.89094 -1.55529 -0.493165
        5.19617 -3.55015 0.362038
        -2.12415 0.480078 0.641801
        5.61866 -2.64022 0.356566
        6.83919 1.93448 3.11337
        -2.6942 1.40451 -3.4001
        3.45878 -1.72863 1.49544
        -0.258168 -2.48881 1.11924
        -1.12908 -0.608962 1.16415
        -1.15028 0.232174 -0.0562885
        3.37229 1.94251 -2.21704
        -1.24742 2.9031 4.89085
        -0.674569 -0.608601 -1.67337
        7.03122 -1.32472 0.932114
        2.03998 2.82396 -0.722841
        0.559591 -0.904057 -0.489568
        -3.96594 -2.31557 0.421846
        2.03708 5.50466 -0.050554
        3.33239 -0.0627693 2.25866
        -3.98534 4.39813 1.31302
        4.42906 1.11624 -0.666934
        -0.00536856 -1.10059 -0.0809809
        3.37402 6.43507 -0.47376
        3.25704 -4.62472 2.16477
        2.39908 -3.97582 -0.252255
        1.47179 3.92657 1.93727
        0.444972 -3.3923 1.58157
        0.171606 0.372036 0.614754
        -0.126646 -1.08365 0.525901
        1.56937 -1.20838 -1.72614
        1.21384 -0.300458 0.748482
        0.872131 -0.581605 1.66105
        4.07761 -7.5056 -3.298
        2.26136 1.16987 3.26921
        1.08791 2.00186 -2.78093
        0.0286968 0.280237 1.47334
        -1.5166 0.288537 2.64181
        3.62995 4.18838 2.27506
        4.27488 2.42459 -2.65755
        3.71697 0.000833225 -1.57416
        0.688839 -0.475732 2.23427
        0.736488 -1.81693 2.85613
        -3.93534 2.01696 2.72808
        3.29491 -2.16713 1.15448
        0.785594 0.852645 3.07413
        0.780957 5.05552 -1.33482
        2.08028 3.541 2.02197
        -1.48853 -0.518041 3.0087
        5.16099 -2.7064 0.116238
        2.29523 -2.52098 -2.41974
        1.77293 1.06744 3.92685
        1.02685 -5.59958 0.472467
        1.70863 5.3461 -0.180743
        0.263427 -0.464267 3.0355
        2.83124 3.71675 -3.35953
        2.2737 -0.51584 0.281007
        -0.285881 1.57421 3.32412
        -0.583465 -4.25358 -1.96672
        1.9722 -3.23416 4.09459
        4.46306 4.23506 -2.83435
        4.15361 1.11712 -1.55989
        3.98577 0.293707 1.94633
        -0.0724536 -4.78984 -0.750721
        3.0233 -1.52664 0.875368
        -1.87717 0.458447 -0.658842
        0.734897 -0.181135 0.170603
        -2.52635 2.419 -0.225133
        0.233835 1.77431 1.46628
        3.58952 0.774263 -2.66582
        4.35232 1.38446 4.94444
        -3.56255 -0.164293 5.10705
        1.71488 3.11346 2.22978
        5.22749 -1.64347 2.03765
        1.39766 3.01478 1.0157
        1.60852 -0.13996 -0.592649
        4.30716 0.767922 5.69358
        3.72664 2.88134 1.16033
        0.612467 1.40839 1.56714
        2.40111 2.49068 -1.77439
        5.4776 -1.4096 5.77623
        -0.865198 1.18539 0.956873
        3.6884 -0.650618 -1.16785
        0.191807 1.47637 3.0963
        0.18662 0.783205 3.36533
        0.305806 -0.0997252 -1.69533
        0.98419 2.11919 -4.70227
        1.36377 1.08512 -3.5508
        5.84994 -4.78372 -1.75999
        5.17921 2.21703 1.89389
        1.37388 2.03092 -3.00856
        1.40773 0.252829 0.408317
        2.48735 -3.19496 0.0674014
        -5.61923 -2.06869 1.18512
        6.42978 2.8455 -1.64307
        -2.81999 1.29451 -2.03784
        8.09738 2.71517 1.31339
        6.88398 -1.25453 0.234363
        -4.00497 3.58008 1.19902
        -0.184661 4.03243 -3.19082
        -0.574628 0.659291 0.988556
        2.3942 9.18897 -2.58609
        2.54481 3.35992 2.80541
        -0.148269 6.91922 -1.41617
        3.82746 -1.88883 -0.537861
        1.52986 2.29441 -2.04609
        -1.1951 2.81376 5.79769
        0.914196 -2.48786 -0.889888
        -0.627998 2.23217 -0.341139
        2.55617 -1.16395 7.45677
        1.08063 4.74843 1.01351
        -2.13087 -0.652118 -2.33343
        0.447519 -2.40362 -0.0499497
        1.37837 -0.0282215 2.96188
        -0.447674 4.60001 4.82555
        2.96997 -2.06587 -0.217255
        3.36799 -3.04715 -0.0682775
        3.27012 -0.3212 -0.306619
        -3.38796 -0.0190757 -0.238067
        5.74884 1.91312 3.09072
        -2.28381 6.32209 -4.47995
        0.335212 -4.30123 5.03314
        1.08145 3.68869 5.87187
        5.71875 2.95941 4.36115
        1.30333 -2.7965 5.56686
        3.46398 -0.731099 4.89219
        2.45329 -1.31445 1.69477
        3.94179 0.429822 -0.848223
        1.95815 1.79629 0.757127
        4.71069 -2.09651 2.52686
        -1.17865 0.100804 2.73541
        0.0984244 0.65426 0.240505
        2.47747 -5.09059 -2.53222
        -0.416035 5.70549 0.150675
        2.71675 2.34878 -0.444168
        2.10705 -1.34674 3.92429
        5.69975 5.13857 0.712618
        2.45462 3.00584 -0.023392
        4.46568 3.69666 -0.772129
        2.67979 1.42846 3.31055
        0.766561 0.605835 1.44059
        -0.570066 -0.783941 0.757119
        0.307631 4.87944 1.20474
        -0.189746 -2.4004 -2.16904
        -2.0941 -1.73237 -0.329418
        2.18601 -0.0901124 2.4252
        2.87343 1.28607 -1.58019
        6.28102 -0.340765 0.843545
        1.90112 -1.63353 0.711538
        4.85084 -1.47907 -1.42179
        0.317619 0.000421487 -0.154961
        4.56922 3.93474 -3.38951
        0.530558 -0.731248 -0.759297
        0.390721 0.639558 -1.35205
        1.9936 -0.969429 6.59292
        2.67892 -7.69554 -1.40354
        5.18951 2.10259 3.01761
        2.06468 5.74413 -1.76788
        -0.804399 1.78871 -2.80878
        -0.128339 1.55741 -0.712629
        -0.407897 -0.936639 0.195255
        1.5508 -0.21211 -0.211043
        2.32859 2.28277 -1.87229
        1.89809 -1.56592 2.92013
        2.33284 0.794019 -1.5071
        -1.11418 1.67663 1.88916
        1.14249 2.84434 3.86773
        7.19751 -0.274468 -2.14003
        -0.68507 -2.9242 -3.86763
        -0.805787 3.73815 2.93735
        4.94396 0.778072 2.31852
        4.31484 1.89787 -2.1337
        -3.93199 -0.399178 1.4705
        0.566481 -0.712041 -0.879329
        3.37629 0.205216 1.6613
        0.270732 0.5874 2.39828
        6.58123 0.866008 -1.39062
        5.51539 1.70909 -0.323281
        -3.28862 -3.68373 4.80774
        1.80742 2.31614 -0.0857347
        -4.45758 -0.97859 4.03875
        2.89572 -1.95143 -1.69115
        6.63203 1.39795 5.19605
        5.49198 0.370446 0.57491
        -3.86809 -3.86224 4.31701
        -0.238972 -2.48829 1.72036
        2.63733 -3.39151 -2.58237
        -0.587229 -0.907618 -0.350128
        -3.40907 2.32559 0.24746
        3.75968 0.0153466 4.37363
        5.7164 0.534382 0.417482
        6.65766 -5.52545 0.00717323
        3.48728 3.25032 3.10965
        1.67797 -0.0452366 -0.329281
        2.32008 -4.56841 3.60488
        1.29866 2.54756 0.739266
        2.31645 -2.72028 1.3525
        2.98124 -1.51513 1.48065
        0.983723 -0.057849 -1.0887
        3.71414 1.24625 -1.14858
        -1.24454 -4.6592 2.47083
        0.0117443 -1.87639 0.0119978
        5.68822 0.856558 1.53421
        4.16986 -0.146886 -0.403693
        2.16899 3.95914 2.13807
        2.67857 1.31056 1.09033
        3.26103 4.20822 3.42603
        2.60859 3.50598 -0.88289
        4.41335 1.01507 0.761984
        2.05573 3.8379 -0.567883
        1.95303 -1.74233 1.50487
        7.25195 -0.279421 5.94539
        3.57465 -6.74913 -1.62938
        -1.52263 1.44331 -1.37681
        3.27169 1.44316 0.186714
        -1.86457 5.54307 -3.79771
        1.78893 -3.08131 1.2959
        -1.6264 1.9759 -1.88292
        1.88248 0.955751 -0.862496
        -2.0587 0.0622799 -3.70881
        3.00125 2.64453 1.45996
        -4.85978 -1.52088 -0.465854
        2.81464 3.84654 -2.79349
        1.44965 2.12738 -2.40694
        2.80188 3.274 1.84893
        4.75726 -0.471622 -0.0702051
        0.209163 0.285515 2.90972
        2.98791 1.99614 1.07188
        1.86763 0.398915 5.10402
        4.55744 2.72612 -0.421219
        1.87308 4.55171 5.81561
        2.15947 0.886122 -5.4696
        1.6891 1.42456 -1.82364
        0.334294 1.34594 -0.119156
        5.26071 -3.28098 3.46716
        6.39536 -2.11938 3.45391
        5.01403 0.358604 -0.2883
        1.66693 2.81425 -0.827359
        2.75587 -3.25629 -2.00438
        0.661266 -1.05335 -1.91754
        4.17984 -6.00875 -1.88032
        2.40772 -1.73554 0.649821
        6.85168 2.0711 -0.149845
        2.6384 1.42338 4.11662
        2.27993 1.89659 1.03754
        2.50312 0.712412 -1.16594
        -0.067267 -1.35598 -3.97127
        5.45686 -4.32725 2.65673
        0.777245 0.864804 1.56402
        4.40867 5.71116 1.6058
        4.77951 3.81143 0.579409
        -3.22405 -1.99979 1.41457
        0.190877 3.3756 2.3576
        1.74478 0.652617 5.8021
        -2.85893 1.93708 4.40579
        1.52701 -1.56876 7.59168
        3.98734 3.18986 0.953247
        3.79916 -0.848805 0.31367
        0.87211 6.07351 3.64543
        1.04469 1.66097 -2.07628
        1.28102 0.756561 0.0488527
        1.2759 1.82437 1.14572
        3.1632 -1.32532 -2.53119
        0.72846 -0.750066 0.259309
        0.288158 5.52274 3.11538
        -3.8809 -4.42965 1.68408
        -1.9391 0.798177 -2.8184
        0.120147 -6.05364 -4.34596
        0.419914 5.07989 -5.01538
        0.0776246 -1.79131 5.68216
        7.7057 0.173621 -0.652867
        -3.0203 0.507851 6.71339
        0.596473 3.80712 0.637479
        3.18751 3.78406 0.747718
        3.37784 -2.24905 1.14509
        -1.36992 -1.36027 1.30279
        2.95787 -1.34306 -0.432731
        2.50661 3.16807 0.446433
        3.01473 -0.936281 0.561997
        -2.64264 -5.31737 1.86882
        4.35119 -1.08482 -3.30116
        0.306713 2.2194 1.67446
        -3.29958 -1.67422 -0.144362
        1.18194 -3.93033 -6.48541
        -3.9629 5.71061 1.65614
        1.90299 -0.339047 0.417237
        2.36142 -2.50252 6.84178
        1.99805 -3.71377 -0.162412
        1.79373 -0.156269 0.209481
        3.82411 1.51203 3.71069
        1.11812 -2.44621 -2.63635
        3.25119 5.91257 -1.76945
        4.81318 4.53846 2.0376
        4.53113 -3.35652 -2.48228
        -0.805633 -1.91987 -4.41356
        -1.42777 -2.87186 1.64849
        1.72912 1.22994 2.09042
        5.42539 -2.07788 0.00891858
        2.88122 0.57464 2.60454
        1.98463 -9.76141 3.66263
        3.50434 3.14275 1.6433
        -0.91607 2.36229 -1.23064
        -1.45006 -0.453893 3.42924
        3.85175 -2.36389 6.93559
        -4.58369 1.43003 1.5081
        -1.45392 -4.59752 0.427382
        -3.64688 0.505845 -0.496416
        1.25936 1.95197 -3.81602
        2.63571 -0.243616 -3.30106
        3.46569 -5.10994 0.475553
        3.92718 2.72211 8.91637
        1.98412 2.21651 -6.30401
        6.56592 -0.340796 2.44732
        1.2055 3.64899 5.94726
        4.16462 2.55369 2.73731
        4.49524 -2.82764 1.79299
        1.01951 1.47626 2.00067
        4.3596 -1.01018 0.780335
        -0.0284312 1.06299 1.67506
        -1.65252 1.12528 4.70579
        -1.20899 3.37224 -5.98128
        0.0159659 -6.60044 3.53867
        0.798077 -1.24682 -4.03787
        -2.57957 3.28494 4.72641
        -4.22426 0.538826 3.19953
        -6.40807 -3.31291 3.39429
        6.98952 -5.33508 0.955518
        -0.757293 0.989942 -0.811237
        4.6507 -2.28517 2.16536
        -3.11948 0.677148 0.337884
        2.35475 0.827736 -1.26695
        2.2272 -0.781568 0.00772104
        1.76799 -2.91607 -3.41003
        -0.917882 -3.30931 1.29403
        6.89199 -0.260265 -0.596033
        -4.36556 5.90604 1.15378
        -0.3555 -4.35395 3.20564
        -7.40505 -1.56991 0.272283
        0.100202 2.08642 -0.924203
        5.96611 -0.838729 1.40104
        2.43826 2.73657 -0.208077
        -0.851584 2.83528 5.50777
        -2.97116 -3.62833 1.9329
        2.10835 -1.60253 5.34975
        4.00231 2.95303 8.12629
        5.15148 -3.91961 1.85849
        -0.27644 -2.01658 3.14485
        0.348341 5.00907 -0.405198
        -0.746271 3.32342 0.97312
        0.880026 -2.62417 -4.07329
        0.766136 2.71771 0.281615
        0.957122 1.029 3.17006
        -1.8221 -5.80674 4.21383
        5.02462 1.49194 3.80258
        -0.888969 1.80252 -0.935976
        -5.44953 -2.44481 0.459054
        -0.533358 4.64704 0.110522
        -0.430476 1.54714 5.35946
        7.59923 -1.92189 -2.7794
        5.98049 -0.73781 3.04953
        -1.15006 0.318856 -0.153443
        1.42936 -5.22653 -0.783289
        6.67625 0.912775 1.1525
        -0.613303 1.856 1.62121
        -0.246446 4.55657 3.05804
        4.71472 5.73496 -1.95756
        2.48481 2.93252 -1.29043
        4.49579 3.40205 5.75944
        4.041 5.04077 -0.475759
        1.57269 -4.77473 1.43335
        -1.08806 -5.19563 5.05148
        -1.72102 3.63912 -1.38595
        -1.38135 1.56863 -0.258723
        0.0659136 -0.18057 -2.58092
        -2.22503 -0.354125 0.024291
        -2.70921 4.41558 -3.19883
        2.21142 0.234335 4.35463
        4.62012 1.36355 -6.20775
        -2.20549 -0.556808 1.76352
        -3.15329 -0.839074 0.973713
        4.96094 2.20012 3.98163
        -1.83924 -3.42476 -3.07072
        -7.9912 0.0221197 -2.21119
        0.309978 -1.80738 3.436
        1.12073 0.26879 -1.29379
        3.58854 4.87235 -0.52994
        1.6995 -4.14346 -2.26313
        -2.05062 -0.964796 4.4999
        -3.71749 -0.472932 2.08233
        0.799654 4.76112 0.838267
        -2.27335 4.01674 5.41764
        2.45027 3.48156 -2.4377
        4.51675 -1.95853 -2.19373
        -2.55189 -4.24092 1.9117
        4.43063 -0.979168 -4.02492
        1.44278 0.699712 2.08244
        3.50109 3.85234 0.647454
        0.71054 -0.17321 0.634145
        -2.04393 0.141433 3.14811
        1.83158 -2.76516 0.467849
        1.98195 2.91307 2.28939
        -0.580682 2.3434 -1.84378
        -0.0270277 8.4707 -2.16577
        -6.26988 -2.00379 1.39338
        5.95951 -1.27187 -1.45803
        -3.24677 -5.89228 -0.244742
        -1.74363 -2.97252 1.47105
        1.01721 -5.57425 4.56919
        0.474913 0.192062 -0.831949
        -0.395623 -2.78693 -0.23063
        6.04164 1.68663 1.39191
        2.17282 -4.76283 -2.39171
        -2.51832 -1.65943 -7.35287
        0.728193 -0.887847 2.71178
        0.316559 1.48141 -4.82744
        1.54967 -0.0126836 -3.68614
        2.9191 6.86656 0.0947544
        3.67849 -2.76424 -1.94354
        -1.40775 2.4835 1.00603
        2.93241 5.89944 -0.304722
        -4.69717 -3.64282 1.44063
        -0.0324957 -0.422205 3.27476
        -0.159009 0.606588 -4.93775
        -2.44974 -6.57347 0.686139
        0.33892 0.868647 -2.00909
        8.34067 -0.0726534 0.246388
        -1.32592 -3.5254 -1.374
        0.801549 -0.356593 1.19348
        3.05143 -2.51325 2.58526
        -3.05004 2.19392 0.967782
        0.329494 1.02538 -1.42206
        5.9752 -3.43877 -4.68733
        -3.49329 -2.45499 -4.33264
        2.27576 6.03051 -1.39733
        4.51106 5.68477 -3.39174
        2.82285 -1.3108 -4.27463
        5.81239 1.62961 2.06488
        5.3493 1.47031 0.242931
        1.14623 -1.45517 -3.8558
        -5.3582 0.828229 -6.06061
        3.61617 4.83896 0.897054
        1.25174 2.79473 -3.97295
        -1.90135 -0.607745 -0.0343894
        -1.72724 3.69646 -1.13792
        -2.38806 -3.93157 5.8877
        -0.927538 1.65264 5.80508
        2.21533 -2.1123 0.285154
        -4.84714 -0.78047 1.63205
        -3.44572 -1.3434 1.20378
        -0.678835 -2.0495 -0.625238
        6.05677 -4.70779 -4.522
        0.846074 1.99026 2.10572
        0.904291 0.731743 1.08003
        -1.74549 3.90819 -2.35045
        -3.37292 -0.314886 -3.03528
        5.32405 -1.46918 1.38728
        -1.14364 0.109967 -0.835907
        3.15952 -3.27446 1.88527
        0.379448 0.357847 5.09069
        3.02759 0.269859 0.967878
        3.08824 -0.192365 -0.583996
        3.14727 -1.85921 2.26491
        -3.26377 -2.19573 -1.51514
        1.22707 2.02111 5.23464
        3.24292 0.0486721 -3.46182
        -2.08851 1.63922 4.26052
        3.18717 1.11353 2.92177
        0.569728 1.9214 2.68744
        3.783 -4.2805 0.745634
        1.21665 5.17722 -1.9546
        -1.81196 -1.28212 0.0790488
        -3.40189 -3.19927 -2.71698
        -0.655252 4.32173 -3.31559
        -1.36831 0.206296 4.31097
        4.20968 4.80445 -4.42527
        -2.27371 4.94312 3.04301
        2.75911 -1.18839 -3.55694
        -0.528195 -1.39118 -1.56583
        4.73344 1.1374 2.68758
        4.39482 2.55817 -2.50112
        1.543 2.77174 0.890464
        -1.00341 -1.0475 -3.02646
        3.06278 -6.0483 2.75202
        1.82429 3.4364 1.07793
        2.99224 2.94909 1.15968
        0.26679 1.5814 0.717592