<?xml version="1.0" encoding="UTF-8" standalone="no" ?>
<VTKFile byte_order="LittleEndian" type="UnstructuredGrid" version="0.1">
  <UnstructuredGrid>
    <Piece NumberOfCells="0" NumberOfPoints="15094">
      <PointData>
        <DataArray Name="velocities" NumberOfComponents="3" format="ascii" type="Float32">
        -0.492065 0.281578 2.29305
        -5.32967 -3.03747 2.63551
        -0.293299 -2.77493 2.90392
        3.34917 0.123774 0.343875
        0.290988 -1.90249 -3.11511
        -2.11949 3.36371 -1.37152
        -4.50316 -4.92548 5.8557
        0.656662 -0.272989 6.90998
        -5.29132 -0.961552 3.29339
        -1.4903 -2.93576 0.297762
        0.0205447 2.8906 4.87962
        -5.86349 -2.15377 6.26468
        -3.34287 -4.67535 5.43295
        -3.09027 -8.01732 -1.62936
        -0.338841 0.328442 3.0631
        3.95447 -5.22788 0.311374
        2.06831 -1.23853 -2.46484
        5.06809 1.22597 4.57055
        -2.96292 -2.38914 -1.26837
        -0.199056 -5.99249 1.60749
        -2.62754 -0.0738375 2.13303
        0.787244 -2.14105 -7.5303
        1.30697 -2.68391 -5.26638
        -0.925041 1.36686 1.3557
        -3.88419 -1.79008 1.61831
        -1.95703 1.85123 -6.26127
        3.72333 3.44259 0.771009
        -6.22844 1.71304 -6.48008
        3.46834 -4.36732 4.96294
        1.84535 -1.03541 -0.409025
        -4.65084 -2.54155 -2.75051
        -0.122906 -0.54325 -1.69492
        4.64797 4.56058 3.22013
        5.14258 1.25707 -2.9049
        -1.88663 3.56012 0.0246075
        -2.345 3.97374 0.442231
        -7.9723 -3.68041 -1.15417
        -0.747222 -3.79229 1.24523
        3.98117 -0.233875 -2.5163
        -2.02927 1.24503 7.05944
        6.28678 -1.65709 1.50382
        -1.65888 1.17036 3.13
        3.41105 3.31452 2.13165
        -4.09323 1.00952 2.63414
        -0.480537 2.33744 3.33536
        0.0586342 -0.0654187 -0.226081
        2.35709 5.9882 2.64191
        0.00353297 5.86333 -4.26081
        0.0636627 -5.42762 0.676105
        -5.06882 -1.46651 1.30314
        5.72031 0.387279 -0.163996
        2.48497 1.15047 -0.547738
        -3.30035 -3.84317 -0.43008
        4.4839 -2.39204 0.455928
        -1.03854 -6.27679 0.437394
        -3.07883 2.63474 13.7113
        1.6985 -4.1467 -6.70753
        -3.5608 3.04151 4.61951
        -0.544633 2.96709 3.0545
        0.647278 -0.139607 4.66615
        -3.3567 1.97707 4.59855
        1.13963 -4.11188 -7.74731
        0.992204 -0.850921 4.49148
        0.809737 -6.56199 1.03384
        -3.39798 2.13613 -2.61562
        2.17454 -2.00369 -5.08
        3.86914 -0.638586 5.72602
        4.3191 -3.91273 2.14304
        2.76471 -0.089453 -4.98258
        1.07874 6.20742 -5.20311
        1.7935 -1.79411 3.79518
        3.22693 -2.67132 3.90327
        1.17039 2.48234 -0.467812
        7.86568 2.63938 2.03539
        -3.84772 3.70748 -2.59853
        -1.16805 3.30666 -0.747612
        1.40592 0.741702 0.124048
        1.63235 -4.09658 -1.2634
        -0.982754 -1.93576 -0.864396
        2.54713 -2.4789 -7.71404
        -7.29571 6.90854 0.626829
        1.34502 -7.71022 -0.869037
        1.13782 3.54941 4.4035
        -6.31893 0.459555 0.0918579
        0.834829 -8.47621 -2.54931
        -2.05012 -1.53927 -6.17139
        0.703009 2.39551 4.56269
        1.41182 0.187917 1.17763
        6.01656 4.68363 0.608387
        1.66419 -7.04315 -1.41376
        -3.49378 0.637185 5.7754
        2.09423 -2.73896 1.05899
        -3.1895 -1.27851 -2.65015
        0.912326 -2.10406 2.51693
        -4.3659 -8.40838 -3.92652
        4.47157 -1.38617 4.03124
        0.81671 -0.741105 2.06324
        -5.49165 -4.02506 1.46287
        -3.75717 0.498826 0.0754104
        -1.10453 -6.54285 3.23566
        5.84791 -0.0451835 -0.719235
        -2.04171 -5.81414 3.19121
        -3.28045 5.05611 4.57734
        1.53253 -1.46481 -4.77908
        -1.41348 -1.00176 -3.35129
        3.82963 2.99557 5.78374
        0.429608 2.03072 3.81862
        0.174869 2.29609 -2.79161
        -0.705019 -1.61945 -1.51135
        2.07316 -3.61685 -0.372177
        4.54005 4.58047 4.68181
        1.87137 -7.02081 -1.43921
        1.43933 -5.61958 -1.31692
        1.80612 0.923294 -4.00256
        -4.84266 4.24389 -5.14313
        2.32243 1.62495 5.66548
        -1.99875 2.94583 -1.5537
        4.45299 0.801316 -6.81839
        5.31137 0.375396 -2.1503
        4.253 -0.341297 1.73866
        -2.22786 -3.53703 1.63201
        1.87878 1.44903 -4.66463
        3.67962 -2.13944 1.32841
        1.6367 2.19652 3.43254
        0.681304 -1.53082 3.85042
        -0.163132 2.82128 -0.314377
        -3.78963 5.78108 -0.639239
        1.22682 -2.20438 0.80317
        -0.821594 -3.51437 -0.362946
        1.04295 -1.79056 4.42383
        -1.28084 2.20202 5.56449
        0.227711 2.62384 -2.71394
        4.1917 1.52184 -1.41125
        1.25059 -1.0001 1.60375
        7.03441 7.04273 -3.43106
        -3.47405 -6.89038 -3.26023
        -5.74846 -4.46408 1.69487
        2.46686 -1.14451 -1.76163
        2.87386 -0.904585 3.21716
        3.79434 0.487411 -2.24599
        2.38017 2.34045 2.19987
        -0.868543 5.37494 0.698273
        -0.772051 0.136885 2.73671
        -2.06651 -3.65198 -1.73371
        -1.68137 -0.135667 -4.13028
        -2.85205 1.99218 -1.34974
        0.604743 -0.242841 -0.964722
        2.88405 4.75559 -2.25731
        -0.357917 2.83048 -2.38382
        -3.38095 4.82009 -7.27229
        2.95672 -4.46985 -3.38167
        -0.40479 -6.8072 -4.13861
        2.82758 -1.98157 -0.853611
        -6.27812 -0.667683 -6.37104
        0.218325 3.32799 2.4296
        -0.3406 3.83163 -0.0466948
        -1.44246 2.38202 -4.08624
        2.12159 -0.297537 2.50682
        -6.84665 -1.57897 -2.96696
        -2.59537 4.5313 -5.64047
        -3.22075 -0.756931 -3.94464
        3.9792 5.28319 5.22321
        -2.73536 -0.366361 -5.61155
        1.23327 0.121531 -2.26944
        2.51797 1.54791 6.32336
        2.23359 5.32566 -3.6632
        -0.0300707 -2.14708 3.46533
        -0.821268 -3.67676 2.28978
        1.34667 1.98858 2.1384
        -0.663353 -1.92012 -1.98939
        -1.5848 3.6035 1.41768
        4.42238 -10.1414 0.129596
        2.19817 -1.70588 2.06229
        -1.36177 3.51663 7.15598
        4.45829 3.80441 0.669662
        2.06931 1.44559 4.83254
        6.86253 -2.39578 3.60852
        0.132964 -1.26529 -2.04076
        3.03944 -0.130901 0.247208
        -8.06216 2.77095 -3.74194
        6.98507 -4.23384 0.464958
        -1.03642 1.96874 4.10724
        0.914441 2.02283 0.693008
        2.29793 2.52341 1.06561
        4.92183 1.18479 2.11332
        -1.99163 0.417772 4.73122
        4.41378 -5.29868 0.578336
        -2.49557 1.65327 -4.05133
        0.420599 -1.8048 -2.92432
        2.10302 -0.528761 1.38963
        4.91808 -4.78645 -6.72207
        0.612324 3.26479 -1.01582
        -2.10144 -2.8569 -4.95183
        4.93355 1.77164 1.52191
        1.52631 -1.51701 1.17839
        8.96835 -0.313239 -0.602648
        -1.73682 -0.0555464 -2.38955
        5.42882 -3.66557 -0.54659
        2.87977 -3.35744 -1.21367
        -0.0508442 4.27576 -1.94961
        0.204502 2.42299 -0.193073
        -2.15626 3.74485 -1.84788
        -2.50027 -3.97562 -3.07727
        3.57491 0.491455 4.04044
        0.326181 -1.62709 -2.20188
        5.14702 -1.56104 -6.50402
        3.18448 -1.42556 -1.47284
        0.400369 2.54274 3.30193
        3.25703 2.72032 -1.515
        -2.95685 -0.121125 2.56971
        -3.74044 -1.80782 -4.48457
        8.32782 7.217 3.41131
        -3.76504 1.45037 0.799858
        2.02014 -1.50546 3.54578
        2.18393 0.278734 -4.85792
        -4.93891 0.268575 -0.0875429
        0.059078 -1.52754 -3.33105
        -5.35394 2.32009 -0.639705
        -1.66343 -2.49267 0.301241
        6.62588 -3.08209 2.9345
        4.85745 -0.211655 -2.5226
        -1.12331 -0.505553 -2.43957
        2.19139 -3.50781 1.84787
        -0.110837 -1.98281 -2.45843
        6.81052 1.42115 -1.59315
        4.45931 1.50752 0.80922
        3.94539 -3.38124 -0.147601
        -3.6591 2.17134 -3.65983
        5.74696 2.38404 0.168535
        5.31192 -6.12154 1.02504
        4.75072 2.55892 2.24198
        3.43459 3.03949 1.05295
        7.43911 -1.74748 9.49196
        4.8077 -0.713937 0.391161
        4.11383 1.52817 1.88452
        -0.5332 1.00121 -0.740942
        9.8298 4.73512 2.89441
        7.33018 0.807622 6.35841
        3.86994 3.19826 -3.77305
        4.14573 -5.63474 0.0226171
        0.902018 0.109627 -1.07596
        6.56714 2.72701 4.05561
        -0.441603 -0.61799 -1.84259
        1.89262 -7.7141 3.92337
        -0.414197 0.139272 0.171176
        0.833436 3.18291 -1.63176
        1.09866 -1.38473 3.18715
        4.68964 -4.89929 0.760691
        -0.223063 0.0971886 3.4719
        0.0895183 2.32635 -0.477752
        -4.17551 2.06502 -1.27078
        4.82688 -2.14365 -1.57076
        6.99914 0.372513 2.24878
        3.31468 1.93928 -1.42741
        6.71798 2.23565 -6.44692
        2.06409 -1.59761 1.92477
        4.53276 -1.32166 2.02795
        2.9352 -3.54251 -1.2881
        -5.57619 0.170474 3.42554
        -1.1835 -0.298761 -4.83734
        2.95416 0.214317 2.95968
        2.11305 -1.81888 0.192116
        -3.44479 -3.96399 5.04596
        -1.48364 -1.06016 -5.41962
        -3.02567 -2.24602 -3.44225
        -4.40225 -0.406673 -0.071305
        -4.27721 -0.637868 -0.0977789
        -3.53002 2.99634 -8.86872
        4.16941 -6.92989 0.696332
        0.48315 1.3548 -6.37418
        -3.10474 4.87971 -0.365043
        1.47759 -0.638729 1.95253
        4.90789 -0.47435 -0.539197
        8.34141 -1.62581 -2.47073
        -3.00062 1.46653 -6.81251
        -1.1099 -1.92299 5.09862
        2.5638 -4.01281 -0.0742011
        -0.951511 -3.56602 -4.55906
        -3.27518 -2.69801 1.17322
        -4.8534 -0.245456 5.00641
        -0.117668 2.3249 2.11313
        -2.1681 -3.11778 4.10346
        0.681801 1.78375 0.932385
        2.10401 4.38753 1.56813
        -3.99819 -2.20644 2.78203
        1.2329 1.12056 6.1866
        3.11017 0.252739 1.13524
        -3.40814 -1.35032 2.26713
        4.31101 1.43736 2.5206
        0.931196 3.1059 1.87187
        -1.08704 -5.24447 -0.979353
        10.4569 -5.28512 2.60514
        -0.362421 -0.966691 3.22676
        2.04565 2.6481 -2.9582
        -0.11772 2.06135 -5.51247
        6.36543 -4.24288 6.98831
        -3.80825 0.656119 3.38047
        2.04696 -6.8266 -5.26206
        2.81084 -5.04303 1.13241
        1.74823 4.36031 2.72703
        -2.677 1.71014 -2.67756
        4.59223 -0.951824 -3.89277
        5.21384 2.97391 -0.455567
        1.35768 1.02013 0.773235
        0.42961 -0.662415 -1.28634
        3.7755 6.0993 0.969925
        5.17143 1.21665 -2.01588
        -1.37351 1.63215 1.12715
        -2.6807 2.5335 2.36382
        -1.218 -0.945976 1.30564
        0.419148 1.55826 -3.22995
        -1.54169 -0.251084 2.96683
        1.00276 3.20909 -0.653246
        0.493883 -1.75282 -1.14658
        1.86139 1.6335 3.32124
        -3.08026 2.07059 3.38724
        2.46541 -2.09247 0.384577
        -3.1771 -0.0869028 -1.38429
        -3.80382 4.64968 -3.01695
        4.3019 -3.17892 5.24838
        -0.9027 -0.451592 2.1784
        1.09528 0.595496 -0.106194
        -0.36871 -0.736196 5.34825
        -1.07356 -2.53811 -1.65296
        0.0352166 -0.984499 -1.16655
        3.51542 7.47116 2.41268
        1.49012 7.57414 -0.749785
        7.29052 -1.34551 2.12329
        -3.24352 -4.53283 -4.9868
        -2.14132 2.14628 1.23844
        -3.28941 2.08403 -1.8812
        0.784123 -2.44258 2.81949
        -2.33173 2.20266 3.4627
        2.46574 -3.93953 -1.55318
        1.76149 0.313803 0.626636
        1.45824 -2.29692 5.02749
        2.55185 -0.94951 -2.94175
        -0.485495 -2.19049 5.86948
        -0.158425 4.68398 -0.593028
        3.82459 -3.85522 3.42975
        -1.29566 0.454224 -6.26214
        -2.19648 5.02698 2.43604
        2.50913 2.64237 -4.21286
        3.90349 -2.44147 2.50782
        1.08859 -0.614995 -1.8888
        -3.78108 5.18277 0.00760347
        1.69248 4.84401 -1.7088
        1.39917 -0.429005 2.64418
        7.18243 -2.61614 -1.16905
        0.457806 -1.58864 2.99355
        -3.72327 0.500482 -1.8944
        1.47698 11.3281 2.22052
        6.89473 -5.85743 9.48463
        -2.14366 0.229602 1.80478
        0.793749 -3.25195 0.0561279
        0.851764 5.24208 5.73428
        0.306213 -3.7506 2.67935
        -2.11252 -3.34779 3.66679
        -2.72894 0.875701 2.31379
        4.04226 0.429772 -1.93955
        -1.17988 -1.20155 0.0863107
        -2.40993 -3.90437 0.581308
        4.56973 -1.63525 -3.35934
        -2.24926 -5.12253 0.0159874
        -3.22695 -3.93018 -1.07082
        -4.55056 1.77434 4.29103
        -2.30212 -0.634848 4.48062
        -0.00953388 -6.35407 2.06823
        2.2277 -5.10051 0.54691
        6.00691 -3.39964 -1.1724
        -0.0594653 1.4277 -0.354582
        1.26011 1.57968 -8.50902
        3.48229 1.15491 0.373564
        4.7256 -1.64479 -3.55859
        0.923374 1.2786 -1.53595
        -4.78573 -1.9993 1.09184
        -1.19319 0.727691 -2.85349
        -1.3048 -2.0108 4.22946
        2.9835 5.2607 0.187474
        -4.81102 0.280023 -3.12441
        -1.28296 4.90337 -4.12142
        -1.77557 -0.0642202 0.0643177
        -4.8926 0.5606 1.11621
        -3.62029 2.95318 -2.01147
        1.78451 2.80049 0.997502
        2.48544 2.44122 2.83655
        -1.42342 -5.81591 -2.49811
        4.89384 1.42769 3.61342
        0.120294 1.7363 0.243446
        -1.9993 6.40203 0.226737
        0.556057 -1.39693 2.4296
        -0.665874 1.75363 -0.251694
        2.13807 -2.97758 -1.47594
        -2.39817 3.72942 7.60487
        -1.76192 -0.867415 -3.72394
        -1.81634 -2.86036 3.45516
        5.8134 -1.02219 1.38899
        -2.16479 0.233432 0.657334
        -1.34847 -2.68296 -3.14665
        6.49886 -2.77181 1.34513
        -1.48328 1.42367 -0.903471
        0.503188 3.23084 -2.45519
        -1.77255 -2.36973 -2.16853
        2.30393 1.58916 -1.58864
        -0.412201 1.30779 1.16344
        -2.10354 -0.541837 -2.07892
        -5.57792 2.43391 0.107049
        3.20529 -3.12042 -1.76042
        -0.319512 2.05942 3.90038
        3.80118 0.567736 2.44347
        2.93448 -4.23207 -3.2068
        -1.60615 0.784764 0.702317
        2.07597 -2.26469 -1.43811
        1.7924 -3.80915 -1.2784
        -3.25859 -2.34105 -3.42575
        6.61377 1.21583 1.27292
        3.41826 -3.20349 7.50344
        -3.5533 -3.39555 6.98845
        -1.42831 -4.40863 -0.0944339
        2.29615 3.58791 -1.77136
        0.485507 0.266748 -1.34201
        -1.13663 -0.058092 -3.37399
        -3.3438 3.96156 -3.09337
        2.49669 1.18109 6.28305
        4.30919 -5.26112 2.49497
        2.60023 -1.00474 0.905849
        2.36906 -3.95418 -0.663743
        4.87387 1.56139 -3.16984
        -0.505507 2.43885 1.40973
        -0.698412 2.2551 -0.954175
        3.60567 -0.634219 -5.07003
        4.68715 3.19816 -0.365441
        -0.377945 2.32678 0.963715
        3.04145 -0.596536 0.0802766
        -3.0961 2.28262 2.07597
        -6.07996 -0.00273787 6.39364
        1.25801 -0.38753 4.46075
        0.667625 0.0453739 -2.52928
        -1.68895 0.418112 0.199525
        -3.21204 1.58939 -0.179569
        0.897687 -4.0662 1.04844
        0.89395 0.791304 0.831776
        1.55062 -3.93804 1.31318
        2.75811 0.995296 -3.91385
        -2.71217 3.59003 -0.748989
        0.183597 -1.83483 -0.578913
        -0.40877 -1.00995 0.39768
        -0.378539 3.07762 -0.987649
        6.08955 -0.448828 1.53652
        4.85809 -6.47393 2.20972
        -1.49931 -2.97471 2.57144
        -3.76834 2.62141 -2.83959
        2.64642 1.25547 -2.70754
        -7.06556 -5.09253 -1.52954
        4.29296 0.748786 2.07281
        0.980253 -3.61932 0.452851
        -2.70823 -1.10848 -3.03286
        2.96305 1.48449 4.9467
        -2.09481 -3.83502 -0.514208
        -0.961506 -5.0256 -2.11099
        1.49167 1.65521 4.32348
        -1.87899 6.2582 0.912323
        3.45857 2.40265 -7.53409
        -0.499445 2.28893 -2.40229
        -4.46777 8.01109 2.75509
        0.256595 -2.2567 1.57924
        -4.89481 1.41165 0.570366
        0.491573 -1.80288 -0.00251376
        -1.24661 -0.664233 -8.38977
        6.18586 -4.41341 -3.06161
        4.98393 -1.19355 -0.322017
        -0.23927 -7.43085 -2.62909
        1.51697 1.35013 -0.190398
        -2.18512 0.740999 0.312125
        0.609111 -5.2519 -5.05422
        6.47477 -3.04187 -3.15129
        1.11275 2.08866 -4.18665
        -2.4117 -1.64613 3.63128
        -4.68911 3.89525 2.47939
        1.65811 -1.54445 -1.17457
        -4.19864 0.710714 -1.28072
        2.15046 -5.68942 0.807509
        -3.85902 -8.42155 -1.84595
        0.350526 -2.32221 1.90642
        -1.06653 0.113519 -4.08462
        -0.432089 -2.56754 -1.11594
        -1.9621 -1.74336 -6.91895
        0.508529 -1.3224 0.376728
        -0.958099 2.51111 -3.96736
        1.22152 -9.23871 0.511932
        0.727825 -2.36994 -5.72694
        1.06205 2.38249 -0.417514
        0.108162 -5.04838 1.29386
        -1.7367 0.725788 4.54323
        -4.27129 -3.11526 0.345216
        -2.92635 -1.10367 3.17967
        -0.337725 1.62617 1.90227
        1.693 -4.80787 -4.25084
        2.16146 1.51826 0.846116
        1.33821 -0.347015 1.3811
        -2.9065 0.541787 1.76978
        -0.485671 -1.18364 2.57848
        -3.69996 -2.03483 0.0287804
        -1.00112 -1.21139 -0.295353
        -0.216204 1.99368 1.50956
        2.37706 3.38123 7.96377
        3.92625 0.600066 4.04942
        -5.14175 3.28617 2.3552
        -3.0106 3.85549 -0.27107
        -8.36547 -2.39818 1.26096
        7.3197 -1.76456 1.66297
        0.602642 -0.171993 0.244122
        7.25716 -5.99692 -3.6694
        1.73885 -7.28693 -2.46111
        -2.02935 1.83303 3.9532
        -2.19209 2.52141 3.19369
        0.554413 1.28163 1.59561
        -2.37668 1.447 2.88724
        0.382371 5.40072 -0.980501
        -6.87309 -2.02194 3.51085
        0.623998 1.31094 5.58138
        0.608034 -2.41177 2.12885
        -5.36378 4.2985 1.69129
        -0.0504846 1.09674 -1.77917
        -2.2285 -0.509975 -3.91441
        5.84121 0.0690418 -0.884607
        -2.12088 3.77007 -4.39414
        1.69762 0.982449 -0.470318
        -2.05036 1.39982 -0.514229
        -1.53774 0.240656 -4.64376
        -0.710717 6.35093 0.992687
        -3.57014 -0.0359499 0.146966
        -2.16524 5.13067 -1.78235
        -0.0113875 -0.386295 2.11579
        -4.37108 -0.718954 4.74895
        0.370182 2.7161 -2.18062
        1.50245 -3.89826 2.36593
        -2.12217 0.111195 -1.84285
        -0.417873 1.59772 -0.338165
        -1.57389 2.11902 4.46106
        -1.82551 -0.393158 -1.19864
        -1.45502 2.50246 0.857386
        -1.09537 -1.49893 -0.339446
        -0.523237 8.02712 2.06117
        -6.10345 -2.56353 -0.902308
        -3.20744 -3.033 2.3631
        0.818606 4.59548 -2.2135
        1.97862 5.68159 2.00889
        -3.9114 -3.3746 -0.184301
        0.471234 -2.61152 -0.762112
        0.60445 3.10234 0.0976961
        0.911405 0.958852 -2.35409
        -3.298 -0.975202 -0.452239
        1.5178 -2.38497 -2.06878
        3.23202 1.04997 3.04892
        -3.5458 0.659654 -0.249253
        0.261751 3.73975 0.395141
        2.39168 2.33116 0.56268
        -0.701939 0.51664 -1.5824
        -1.89901 0.0904762 -0.0146833
        0.872007 1.02803 -0.581785
        -4.63536 0.616255 -3.04389
        3.22095 -0.841283 3.75287
        1.58755 -2.96845 2.54428
        -0.679793 -2.68051 3.88796
        -3.51132 -0.183134 1.53242
        -2.1569 5.89696 -0.950757
        0.110532 -0.767826 0.508728
        2.33774 -3.20801 1.9306
        0.747772 1.03816 -2.1399
        -4.6894 6.3795 1.76859
        -3.70473 2.28415 0.378952
        0.634168 -1.08928 1.28542
        -3.21192 4.91036 0.0872753
        -2.54233 -0.785952 -0.952311
        1.03848 4.7634 2.06521
        -4.09634 2.49143 -0.296433
        -1.54755 0.872822 1.40548
        -5.46119 -0.718724 -0.53423
        -2.31864 -2.7811 -3.22724
        -1.29882 2.78592 3.33562
        -2.21661 -2.24721 -2.08697
        -2.25812 0.941001 -0.803903
        -6.2362 -0.775483 0.324761
        -4.09681 2.50051 -0.049223
        1.12873 4.09441 -0.457233
        1.07443 2.80582 1.84939
        0.291719 -0.754285 -3.61281
        1.80776 -1.04237 2.39646
        0.92374 -1.95474 4.43666
        -1.22872 -0.99684 0.070054
        -8.97565 0.839008 3.87934
        -0.0599315 -4.59346 5.60341
        -2.51993 -2.94541 4.29835
        -4.93383 1.06337 3.75925
        -2.83614 -2.69752 0.724059
        1.53617 -5.82713 2.49431
        -4.43524 1.88878 -1.67409
        -2.34575 3.34271 3.49892
        1.98659 0.920719 0.128416
        1.18112 -0.803409 0.368044
        -0.628626 1.76816 2.55642
        2.92817 3.6429 -0.104091
        -0.478859 1.62028 -1.28517
        4.04384 -0.11956 -1.57839
        0.101498 -0.0248431 -1.28044
        -0.0494538 -0.192737 -2.68489
        -1.21952 -0.745051 0.934223
        0.153528 0.0405856 2.70119
        -3.05047 1.48177 8.33621
        -2.07559 -0.287196 0.676487
        -0.762177 -1.54515 -3.59811
        -0.717735 -1.31795 3.34035
        -5.31862 -0.739211 2.11987
        -0.385703 5.23103 -0.351553
        -0.306802 -0.0210593 1.95016
        0.212427 3.34217 3.80039
        0.736474 3.51153 3.24693
        -2.49095 -0.20633 2.68254
        -1.4459 2.32713 2.8816
        3.41454 1.41408 0.299546
        -2.68381 -2.26479 0.0276332
        -1.74171 1.21255 -0.699845
        3.48459 1.0436 -0.972787
        -1.49333 -6.29816 0.431278
        -5.1304 -0.0591811 -0.86705
        0.848222 2.90312 0.54607
        -4.35437 0.182127 -1.63686
        -1.89881 1.42116 0.324067
        -1.99341 4.07027 -2.63184
        -0.658867 -2.6539 -3.96035
        -0.71816 0.556698 -0.503087
        -5.02579 0.0382074 -0.0989558
        -3.78138 1.33483 2.53272
        -2.41662 -0.5749 4.16561
        -2.92844 0.911605 -1.01288
        -1.82196 -1.18647 1.04578
        -5.36432 -1.47384 -0.13782
        0.0559081 2.69761 -4.0794
        1.7316 -7.70357 -0.282777
        0.368583 4.97612 -0.617478
        -3.83318 5.40868 -5.17602
        0.0743615 2.65435 -3.9767
        1.96445 1.88731 -0.226173
        1.1776 -1.66844 -2.41758
        -1.46674 2.4989 0.114099
        2.6861 -3.59129 2.14272
        -2.02348 -1.44946 0.794972
        -3.39764 6.04027 -1.4688
        -1.59399 3.51872 0.890631
        -1.49034 2.8175 -1.5914
        3.84869 -6.12252 -1.49486
        -1.37127 2.25274 8.03758
        0.388793 -2.45716 -2.45586
        -2.85777 2.64816 -5.46312
        0.144192 -4.14986 -3.56022
        0.916649 2.0204 2.10331
        -2.38617 -0.966564 -1.05143
        -3.31482 2.98143 -1.38239
        -8.35369 2.52524 -0.829711
        -5.01993 1.28304 3.51242
        -4.16034 1.57912 -6.3447
        0.91309 -1.30607 -0.744035
        -4.88028 -1.99592 -1.02056
        -7.14454 0.108517 -3.62285
        2.2057 -0.6751 3.52737
        -2.30045 -1.28112 -2.18533
        -3.29752 -4.86061 -3.81751
        2.32078 -4.26316 -0.303049
        0.681789 3.00259 -1.79316
        -1.61162 -2.68334 -2.85639
        -1.74983 3.32641 2.85285
        -8.77291 -1.61338 3.27161
        2.99206 1.2939 0.964761
        0.257731 1.31215 2.18143
        -2.42751 1.57749 -1.84001
        4.20442 -3.64935 -0.563852
        -5.3919 2.02309 -2.83283
        0.771433 3.50158 4.07271
        -0.829477 -0.848406 -1.49182
        1.92332 6.24058 -6.34453
        -1.34483 -1.43347 -1.66844
        0.186533 0.919872 -2.94377
        -4.62008 -1.86302 1.15414
        0.0125746 2.56444 1.17385
        -5.57178 -2.09359 -0.393295
        -0.448026 -3.99744 -1.4406
        -0.208539 -2.68436 3.27624
        -4.67828 -2.02436 -6.0037
        0.136094 2.55059 1.0479
        -0.387149 -1.25057 -1.40946
        -5.09113 -1.94381 -0.738678
        5.82996 -4.52119 1.57938
        -1.88803 1.5482 0.315699
        -6.89262 -1.79341 1.1836
        3.42479 1.46443 0.968681
        1.58657 -7.10998 0.830053
        -4.29671 -3.70923 -4.07346
        3.3073 -0.26637 0.508642
        -4.62907 -1.81508 0.141714
        -1.74785 -1.63677 2.56955
        -3.43347 -1.98898 -1.53365
        0.674885 3.50103 4.13684
        -0.487985 2.75914 -7.11007
        4.40376 2.23572 2.12408
        2.17662 2.33131 0.950486
        -1.12536 8.23379 4.31171
        0.550592 -3.95982 -0.98416
        -1.73216 4.60194 -2.03074
        -2.48509 -2.21541 8.38165
        -0.748453 0.399532 1.93776
        -0.719716 -0.474912 2.91666
        -1.07995 2.60933 -2.25491
        1.77081 3.47248 1.33038
        2.95285 0.601472 5.32923
        0.015077 -5.80608 -2.46899
        -1.99417 2.8695 1.68185
        -3.27594 -2.79434 -0.668958
        -2.66271 3.33475 1.40471
        -2.31277 -0.680885 -0.910421
        4.05375 -3.3543 -5.88004
        1.44402 -1.77131 2.61412
        2.82321 -0.607004 0.542539
        -1.64746 4.69432 2.38404
        2.38018 -4.03909 1.88813
        -3.48043 -2.62891 -2.12511
        -0.66266 0.415008 -1.50915
        -3.35455 -0.808975 -5.19943
        -5.22427 3.61006 -2.91657
        -3.30552 -0.70437 -0.995315
        -2.38769 -3.56503 6.65051
        -3.66381 -4.39097 -1.76672
        4.74485 -1.8046 -3.07164
        3.31672 4.09375 -4.17572
        2.29747 2.84155 -1.96495
        1.23323 1.04471 -1.77197
        -2.63689 -2.37899 5.27404
        -4.6255 1.4945 0.420722
        0.765804 -2.20211 -1.55987
        2.21996 7.25053 1.44666
        -4.39199 1.08204 -0.113713
        6.0447 -4.49766 -3.66184
        -4.41489 0.0082373 0.129537
        -3.64067 -0.0201934 -0.837776
        -0.811314 -0.985277 2.59853
        -0.158445 1.78838 4.08108
        -1.76451 -1.76454 3.69849
        -2.211 -5.7854 2.65295
        4.64823 0.163454 8.64731
        -0.37564 3.82663 -1.76827
        -0.369596 0.865202 -0.246178
        -1.75332 3.0708 -1.55041
        -2.88181 2.41945 -5.29474
        -6.79791 0.880313 -1.90978
        0.871088 -1.83272 -2.46473
        -3.24936 3.74895 2.51227
        4.71278 -1.04604 2.22433
        -0.0809745 -2.052 -0.607302
        -4.63681 1.5521 1.90197
        -0.00376274 -0.230843 -5.73867
        -6.99511 0.0490661 1.18965
        7.29356 0.529016 -3.47489
        0.546601 0.537802 4.83569
        6.93337 -4.63003 0.218822
        0.987254 -2.64376 -0.368214
        -2.98059 3.2937 -4.11378
        1.26418 1.07271 1.83127
        -5.53337 0.257378 2.94448
        -3.49992 3.8571 6.57819
        -2.03665 -0.439591 3.45673
        3.7035 4.61179 -4.4816
        3.09329 -4.15885 -0.707171
        3.37125 0.187226 2.53085
        0.00811421 2.37886 -1.37109
        1.0455 1.13404 0.731968
        -0.963806 -1.3525 5.11945
        4.13421 1.81371 2.68387
        -0.443922 3.35615 1.32106
        2.01325 3.77283 -1.21726
        3.28249 0.803903 -1.48104
        4.37359 -1.04993 -1.44103
        -0.389001 1.01196 -2.91704
        -3.12184 1.6351 -0.130866
        -1.05866 1.57656 1.73626
        -4.62146 4.21708 -6.67637
        -0.790858 0.47651 -0.827523
        2.51063 -1.87981 -8.62664
        -1.11853 1.03916 3.4375
        0.47081 1.02563 -6.08858
        -2.68142 0.220779 -2.81647
        -1.06223 -0.750595 -4.34337
        2.6045 -3.56844 0.933013
        2.13168 -3.92932 2.0918
        4.88057 -2.27626 4.46741
        4.94625 -4.38457 1.85227
        3.54794 -6.37002 -1.375
        -0.191261 3.316 -2.74319
        2.2075 2.07781 -1.3319
        -1.48299 -0.778494 3.5235
        -3.14234 4.51633 -5.25024
        2.049 -0.326459 -3.05759
        3.10066 -1.79693 3.99952
        3.04903 1.10206 -6.3429
        -3.3925 1.63891 -4.59126
        0.825076 1.68008 0.541968
        3.89587 4.49607 1.69662
        -0.382378 -5.90202 5.16885
        2.58787 -3.72777 -0.660072
        -2.05283 6.28219 6.63027
        -4.409 -1.56803 2.35338
        6.40887 0.210175 -0.506371
        2.20724 -1.94487 -1.77733
        6.64341 -3.35269 2.49755
        -2.17634 5.40549 -2.91934
        2.07093 1.78809 -0.176385
        -1.36682 5.24653 -3.29574
        -5.57164 2.33551 -2.50042
        0.506299 -5.60978 -5.1799
        2.97115 4.28528 -2.94958
        0.233876 -1.85477 -1.45634
        0.226364 3.24456 -1.89305
        3.41259 -3.40243 0.129333
        4.08789 2.48323 -2.56101
        2.7603 4.62908 -9.8896
        -0.940597 -1.5166 0.118695
        -2.703 -0.447575 -2.17041
        2.92715 -6.92692 -3.85407
        -0.934308 3.18871 -6.84099
        3.37424 -2.67408 -1.60403
        8.87142 -0.508835 1.42821
        1.32977 -2.29738 -2.74082
        2.68198 -3.39228 -5.12253
        4.02982 -4.7247 -2.42961
        -0.552459 -3.05464 1.57055
        2.10133 -2.5537 -0.518753
        -0.657495 -3.93069 -0.0318126
        -1.93432 -3.92955 -5.13771
        1.81937 -4.06922 1.83226
        3.40755 -1.25087 -7.80743
        -4.67186 3.51792 2.63949
        -0.604227 1.23367 -0.295119
        3.54228 -0.484958 -2.15118
        -7.23095 0.866179 4.28142
        3.95478 -2.64432 -1.32972
        5.96583 -0.705714 1.296
        2.10451 1.91294 -0.083047
        2.73256 1.44168 4.57227
        -6.60367 2.30648 1.2975
        -2.37129 -0.805275 2.37009
        2.38056 -1.14975 0.551559
        4.60882 0.574359 4.99658
        0.513736 -3.22746 3.88763
        -3.10296 -1.41288 3.37006
        -0.104958 0.247869 4.52725
        -3.00722 -1.13469 5.58865
        3.12304 0.687756 -6.73861
        -1.36575 -2.36808 2.91659
        -4.5855 -1.26166 -0.905253
        -9.5701 -0.637617 4.8997
        -6.08825 0.558961 -3.33263
        4.8448 1.09578 -4.52341
        -1.02075 2.94953 -1.70383
        3.11891 0.579582 0.707576
        -2.21194 0.457802 2.22629
        0.449549 3.97176 2.99008
        -6.44834 1.24675 -1.5986
        6.74893 0.428619 1.17063
        -1.86624 -3.12968 0.873898
        1.60429 1.20147 0.405191
        -0.2316 1.95486 -2.01774
        -0.0707561 -1.56215 3.19858
        -2.29148 3.63678 2.50249
        1.30268 -3.40326 4.12572
        -3.14508 -3.72753 -0.438907