<?xml version="1.0" encoding="UTF-8" standalone="no" ?>
<VTKFile byte_order="LittleEndian" type="UnstructuredGrid" version="0.1">
  <UnstructuredGrid>
    <Piece NumberOfCells="0" NumberOfPoints="15094">
      <PointData>
        <DataArray Name="velocities" NumberOfComponents="3" format="ascii" type="Float32">
        2.4951 -3.05675 -0.175503
        0.668885 2.19042 3.38551
        1.84387 0.364881 -1.02443
        -0.893286 0.633664 -0.970322
        0.96868 2.76499 -0.00171524
        3.54314 -3.28284 -1.67752
        0.504978 -1.3099 -3.68891
        -0.495595 0.624316 0.607798
        2.29538 -0.121516 -0.341458
        5.98661 -2.98445 -0.585856
        0.0967023 2.78835 -4.86957
        2.89605 -1.85919 4.36585
        1.46443 0.371484 -3.09661
        0.33374 2.52315 -0.320109
        1.14758 -1.59152 -4.68344
        -3.08877 -0.326264 -0.875351
        3.04151 -0.449815 -1.81987
        1.7016 -1.46576 2.55227
        0.998283 -0.517409 1.25952
        0.282636 0.884928 -1.49802
        0.612925 0.71321 -0.277904
        0.0751045 -0.263742 -2.46659
        2.60243 0.536239 0.706345
        2.00881 2.79733 -2.67324
        -2.58113 5.41113 -1.99561
        0.89866 -0.550201 1.58487
        1.71886 2.07367 4.0715
        2.98662 -0.945866 0.693316
        -1.14295 -0.184756 -2.44721
        6.03003 3.54309 -4.24317
        -0.755732 -3.3685 -1.26511
        -0.411828 2.66521 -2.97354
        -1.5085 0.245424 -1.60704
        -3.36839 0.0119609 -2.3977
        2.53367 4.74011 -0.981067
        -0.250017 -0.282952 -2.74009
        -0.053399 -1.14512 -0.235138
        0.223436 -0.254263 -2.8145
        1.71875 2.09042 0.355629
        2.66247 0.619108 -3.59038
        -1.38106 2.51008 -3.25776
        1.9916 -1.39585 -1.51691
        -1.32681 1.09198 -4.45387
        1.62714 2.67813 -4.20219
        -1.40914 -0.255227 -2.39875
        1.07967 1.13678 -5.77817
        1.72267 1.23642 -4.00955
        2.16555 1.54806 -0.828503
        0.0857323 -3.39127 -0.790057
        0.939459 0.857723 3.27474
        -2.75476 2.93985 1.31343
        0.174186 -0.511546 -1.34603
        -0.0128963 -0.0472022 1.16381
        -1.53557 -1.79457 0.510284
        1.81568 0.945641 -1.38793
        2.01191 -1.26674 3.38657
        2.07064 1.01072 -1.70606
        3.34369 0.565558 2.82184
        2.30738 2.07242 0.432098
        5.74774 -1.37897 -2.52375
        1.70846 2.40626 1.31795
        -0.824317 -1.45974 -2.49862
        0.604215 1.44699 -3.2866
        -2.04133 -3.78064 -3.7092
        3.02853 -0.85219 -0.45393
        -1.46581 0.938034 1.79156
        -0.209752 1.80055 -4.42827
        0.350215 -2.24131 -2.9921
        2.05874 -2.11155 -2.06642
        0.0262088 -2.92235 -3.62957
        0.103044 -1.62108 3.43638
        2.87697 2.13978 -2.92512
        -0.212242 -3.26591 0.294101
        2.35137 -1.63499 -3.64828
        -2.35319 -1.35241 -4.24299
        -0.0460648 2.85538 -2.19743
        2.64171 3.785 -5.45366
        -1.37734 5.80311 0.243453
        -0.999173 -0.217552 -0.897351
        2.14891 0.120393 0.570024
        4.99787 -1.59 -1.53107
        2.92918 -1.94203 -3.91843
        1.54406 1.0536 0.0644822
        2.15958 0.827038 -2.18932
        0.399777 0.653704 2.10267
        0.666895 -1.4071 0.971803
        -0.744402 0.435403 1.05703
        0.743062 -1.18975 -1.83716
        -2.22719 -0.373817 -3.15361
        -1.97202 -0.470235 -2.86137
        3.10666 4.2221 -2.79376
        -2.96879 2.21435 -1.95618
        2.88416 -0.80462 -4.87118
        2.45115 -3.16234 1.31822
        5.43737 0.456824 -1.52413
        3.33664 1.3375 -3.61176
        -1.14418 -1.14404 0.326654
        3.51486 -1.62811 -0.676597
        -0.856635 1.96202 1.31999
        -0.938376 1.13884 -1.0501
        -3.91412 0.230135 1.88985
        1.13696 -2.33183 -2.37458
        -0.435844 -0.873524 -2.92563
        3.53021 -1.385 0.537161
        0.186526 -1.89415 -1.01921
        0.980429 -0.978125 -2.22781
        0.444147 0.575193 -2.42643
        0.561899 -0.982793 -4.59994
        4.07372 0.728557 -2.3506
        0.983646 -4.45533 0.710703
        3.82108 -2.78071 0.394538
        -0.390031 0.767158 2.11869
        1.98819 2.51899 -0.904453
        0.447718 -1.39359 -3.53662
        -0.567847 -1.75257 4.90269
        0.20385 -3.10476 0.84605
        0.0248991 0.741727 -1.8132
        3.85427 -2.25027 -4.12173
        -0.888965 -2.03176 2.90967
        -0.555583 -0.620779 0.168611
        3.92916 0.548902 -1.96756
        2.95026 1.19401 -0.221317
        1.88829 -1.82918 -3.61041
        0.604071 -6.79679 2.82916
        1.08696 1.14519 -1.1713
        0.962416 2.77717 -2.64873
        2.56688 -1.11276 -0.573117
        -1.41935 -2.21127 0.983292
        0.443883 -0.696601 -1.53966
        -2.55617 -0.977305 -2.04138
        -1.12022 -2.36257 1.15195
        1.929 0.755786 -0.215642
        -2.73613 -1.4199 1.78676
        2.13395 2.39849 0.699877
        1.49656 -2.55023 -1.64658
        1.12178 1.29729 -1.0482
        3.47544 0.613423 -2.67799
        1.95715 0.960023 -4.42978
        0.926135 1.63282 0.118701
        3.18685 2.28472 -0.086044
        0.561848 -3.01254 -1.47067
        2.71839 -1.87742 2.86745
        0.035584 -0.526186 0.219645
        1.81741 0.17859 1.03233
        1.52596 -0.871279 3.64857
        -0.801046 -6.35781 -1.81532
        -0.440244 2.15926 -1.27535
        -0.810547 -0.623564 0.5783
        1.87582 -3.82356 -0.901903
        3.90125 -0.874369 -3.21761
        4.07533 0.614676 -4.16003
        1.85296 2.31404 -1.69583
        2.19289 -0.921404 -0.834559
        1.35434 3.17159 0.626445
        1.90276 -3.07634 2.72539
        2.49972 -2.51297 1.63069
        -2.17374 -3.88946 -2.56729
        1.06978 -2.65582 -0.25434
        -0.417532 -1.51905 -1.37648
        2.30771 -2.83398 4.68661
        4.45932 -0.510267 -0.517863
        -2.27275 0.0571761 1.07936
        -1.11356 -1.66544 0.0187363
        -1.54678 2.41372 -3.75267
        1.50599 -4.60902 0.158452
        0.527567 0.174581 2.37352
        2.52684 1.77415 -1.57613
        4.62472 -0.694048 -2.17226
        -5.50226 -0.987335 2.11075
        3.0736 1.10755 0.219411
        1.0192 -2.6437 -0.557799
        -2.42196 -4.13182 -0.462548
        2.0708 -4.48832 0.160104
        2.76488 -2.22885 -1.36089
        2.19377 -1.22657 -0.399683
        -0.266102 0.720435 0.280485
        -1.51087 -0.710433 1.28566
        3.60681 -0.194451 -2.5371
        2.72437 -2.15098 -2.43822
        0.831105 -0.826955 -0.667174
        0.41861 -0.670876 -0.480118
        4.21867 -5.56772 -3.73633
        3.07301 -1.53736 0.508131
        -0.28541 -0.823862 -1.69694
        3.04537 -2.50856 -0.213386
        0.101309 -1.03821 0.155683
        0.67425 -6.50677 -0.885974
        -0.524314 -0.512095 -1.21244
        0.379807 0.702483 -1.66444
        0.74051 1.02035 -0.369425
        5.36532 -0.781526 -1.46295
        0.938 -3.083 0.532453
        1.06952 -1.02735 -3.23161
        1.86875 -0.37 -2.86688
        1.39044 0.591829 -4.19956
        6.18392 -2.80989 -5.16287
        -3.01711 -3.99664 0.565898
        -1.57849 0.225094 -0.431425
        -0.128006 -1.16532 4.78349
        0.928561 -1.86301 0.257283
        2.27209 -0.587397 -2.14674
        1.06502 0.138835 -5.73996
        -0.761628 -3.35607 -1.36987
        0.427436 -2.90385 -7.61764
        0.0797914 -4.06942 -3.6476
        -2.57762 -3.75845 1.872
        1.82937 -1.83779 0.732309
        2.44072 -4.67115 -3.90103
        1.92889 -5.7209 -2.9631
        -3.75354 -2.88764 -3.3476
        1.08092 -0.297076 5.12737
        -0.820763 -1.36448 -1.3554
        0.59088 -3.86971 -0.434416
        2.17317 0.599248 2.14728
        4.58136 1.44315 -1.54425
        1.16392 -1.86673 0.707061
        4.33238 -7.70296 -1.45598
        2.58725 0.250142 0.613829
        0.99651 -2.36955 -0.437895
        1.89333 -2.81143 -1.30664
        1.80861 -6.01419 0.0608453
        2.07201 -3.30296 0.619879
        6.85634 -1.52535 -1.80572
        4.00383 -0.934756 -1.19659
        3.74348 2.57699 -2.28822
        1.73472 -5.47664 -1.84346
        0.664126 2.70482 0.625294
        0.430384 -3.45653 -2.22329
        2.53305 1.02217 -0.549153
        -0.487274 -6.00989 -0.669466
        0.528697 -3.82918 -1.32414
        0.51108 -0.272231 -2.79469
        4.74971 -2.22339 -2.86568
        5.99341 0.00407785 -3.15961
        2.01348 -3.17656 -3.98178
        0.443589 0.105767 -0.840198
        0.887492 -5.15591 -1.02368
        -0.714248 0.0435471 -1.19316
        2.55828 -1.36591 -0.443961
        1.25613 -4.87988 -0.245692
        -0.0525846 -0.407838 -1.41234
        2.00675 -10.9392 0.192212
        -3.01315 -2.3691 -2.28935
        5.1 -3.54551 3.23082
        3.54608 -0.485292 1.94942
        2.60128 -0.345797 -2.45112
        2.83117 0.839069 2.06331
        2.45046 3.47564 -3.15624
        5.91297 3.64263 -0.774015
        1.63109 -0.096394 0.107987
        2.96076 -4.25398 1.67695
        0.591525 -2.69854 -2.80562
        1.1484 0.328268 -2.33093
        1.8809 -1.40273 -1.99486
        2.18517 -5.67517 -3.43857
        3.93963 -1.45166 -6.35699
        1.74781 0.429547 -2.67206
        3.21747 -2.8129 -1.75938
        -3.04515 -4.53262 -3.61223
        2.32611 -3.07515 0.30709
        5.96357 -7.89045 -1.67339
        2.9127 -4.12998 0.0263457
        1.59882 -2.93512 -2.31184
        2.34204 -3.054 -2.0454
        -2.1695 1.81523 -0.376751
        -0.0310895 -4.16831 -2.61502
        1.14296 0.000989194 -1.91926
        2.48592 -4.86065 2.44197
        1.11203 -1.32046 -2.71575
        1.76853 -0.356559 0.803765
        -0.505679 0.565376 0.0757872
        0.928253 -1.04709 -5.23675
        1.8524 -4.19719 -2.53373
        -3.77719 0.0578854 -0.65611
        5.50339 -0.975443 1.4082
        3.598 -6.36935 1.02266
        0.693079 -1.1726 0.679276
        1.86498 -6.78655 1.76466
        -0.423155 -1.17139 -1.75617
        1.05797 -3.32247 2.45647
        0.387078 -4.51024 -3.07798
        6.23593 -2.59312 -0.702206
        -2.15266 -3.08737 -1.28351
        -0.29973 -1.29215 -0.53464
        2.20506 -3.50375 -1.58867
        2.10881 -7.56935 -2.19172
        1.33933 -1.9368 -1.18071
        0.967541 -3.69816 3.29223
        3.11351 -2.70319 -2.31406
        -0.0408443 -5.8064 -0.41908
        3.13863 -1.39448 -3.01445
        2.23142 -0.103639 -2.36441
        3.04303 -5.30117 -3.09304
        -0.994141 -0.556916 1.06207
        -0.866976 -1.64468 -0.356786
        3.24909 2.63627 0.714298
        2.49883 -8.0182 -0.438048
        0.290386 -3.04053 -4.00651
        1.39886 -6.24283 1.84834
        3.31307 -1.15752 1.08174
        2.10808 -4.18058 0.557068
        3.75224 -0.548026 -2.84619
        2.11371 0.625779 -0.358581
        0.960664 -0.360735 0.839121
        0.892914 -0.947242 -1.80454
        -1.05254 -2.91399 0.266823
        1.28057 0.863938 -2.16785
        1.06878 1.62351 -2.356
        0.527205 2.12046 -4.26244
        0.445703 1.19917 -4.38486
        -0.508143 -2.1322 -1.26084
        0.0124256 -1.18046 -1.15475
        -1.12686 -1.30922 -2.59098
        -0.581484 -0.101692 3.0894
        1.63609 -4.28916 -3.3966
        0.00685441 1.5366 2.21739
        3.04049 0.0870257 -0.271077
        -1.56113 -1.48277 -0.012698
        0.947188 -1.43538 -0.565058
        1.70153 -0.412094 -3.50717
        2.49173 -5.8186 1.90876
        2.32086 -5.06156 -5.24375
        0.564092 3.93982 -0.0602598
        -6.31417 -3.67131 0.970045
        3.66419 6.07159 -6.22938
        4.04574 -7.38415 -0.366589
        -0.389166 -3.4407 -3.46109
        -1.10745 -2.23495 2.51967
        5.60067 -3.55398 3.31151
        3.13903 -3.42585 -4.2299
        0.446592 -1.10332 -2.23052
        2.39445 0.0867456 0.895756
        -1.75583 -2.04745 -4.02635
        -2.15382 0.37765 -0.0424357
        -0.595343 1.89916 0.709621
        -0.0856802 1.81073 1.85803
        1.83778 -0.414765 2.01477
        0.676328 -1.28308 -0.107862
        0.684805 -2.01545 -2.10359
        3.16495 -4.3873 0.259939
        1.97126 1.8246 3.08785
        1.71975 -1.93512 -0.438049
        1.86614 -1.30968 4.09476
        1.94839 -6.73989 0.0405793
        -1.83542 -0.820443 3.54942
        0.485346 -4.8511 0.432293
        -1.5678 -4.96311 -0.110826
        0.172531 -0.451319 2.32917
        -0.0695372 -1.98278 -2.84303
        -0.956783 -0.0992945 -0.543208
        1.22422 -2.1353 -0.222178
        -0.563326 -1.48193 -2.94436
        -3.41308 -1.40943 -3.00226
        -0.373519 -0.3113 -1.7085
        -0.706979 1.21283 -1.21685
        0.234388 -3.73143 -3.02787
        0.636261 -1.83354 -0.846586
        1.74728 -0.00922004 0.29591
        0.299505 1.48766 0.406745
        -1.12215 2.46303 1.59006
        -0.574261 3.69807 -0.390326
        0.585806 -1.20828 -5.70394
        0.33516 0.712612 -4.10346
        1.48944 0.762905 -4.89293
        -0.590415 -0.510693 -4.93176
        -0.86527 -0.206599 -4.60561
        -0.898937 -2.07212 -1.49995
        1.56545 -4.97889 0.740623
        1.34535 -0.650566 -3.32511
        2.37932 -1.81552 -3.88219
        -1.416 -1.56144 -1.75698
        -0.820585 -0.222019 -5.67082
        1.65549 0.84385 -2.91125
        -0.0539354 -2.53509 -1.65514
        0.113239 -1.31062 -4.50425
        -0.285981 -2.32014 -4.47308
        -1.08019 -1.60539 -1.98699
        -3.69457 0.15405 -2.35409
        -0.094776 -4.51695 3.96263
        -0.0293016 0.0277352 3.6531
        -1.56094 -1.68935 -0.863191
        -2.8311 -3.46085 1.16849
        3.55915 -1.08126 2.91824
        1.98833 -5.3745 -2.03113
        0.118576 -3.47919 -0.613114
        -0.842749 1.47814 0.132316
        3.22981 -0.344321 3.09927
        -0.469536 4.53034 0.52997
        8.63921 3.9676 -1.97821
        -6.2171 -4.94176 1.12024
        1.50084 -2.36914 3.71339
        -2.76133 0.365192 2.61777
        -0.0375261 0.20977 -1.99627
        2.06332 -0.942263 -0.273157
        -0.635282 -1.8207 -2.60241
        2.10289 -1.45433 -3.22402
        -2.2205 -1.87805 1.06664
        2.39378 -2.69038 1.07613
        -1.86998 -0.180503 0.581167
        -2.09841 -2.23519 -1.6445
        0.102842 -0.288244 -0.0202566
        -1.52864 -4.47022 -0.840791
        -2.46463 -0.316945 3.34863
        -2.64496 -0.550072 -2.74828
        -2.83911 -0.895487 -0.150566
        -0.477849 -1.26569 0.157036
        2.45531 -2.36055 2.61863
        -2.02882 -4.51887 -1.49932
        -0.0367995 -0.320276 0.481363
        -0.00558226 -5.89617 -1.40825
        -2.08867 -5.22417 3.90312
        -2.87145 -3.32444 1.50613
        -3.14528 -3.13016 -0.20761
        -3.76381 3.54944 -2.30295
        -4.52091 -1.68095 -2.33755
        -2.53007 -2.15411 0.876667
        -5.13434 -0.653815 -3.4256
        1.29126 -1.08139 -1.8805
        -0.724317 -0.186529 -0.401995
        1.59606 3.52049 0.211844
        -2.22582 2.30502 -2.39629
        1.19005 1.52691 1.70894
        1.49377 -2.28705 1.15249
        -0.0748801 -4.03109 -2.78987
        -0.726011 -1.20321 -0.681418
        -2.80896 1.49512 -3.52091
        -3.67004 -6.94926 1.0831
        1.20048 2.3059 4.43949
        -0.363138 -1.61034 -2.49288
        -0.82599 -0.896846 0.629703
        -0.00295434 1.76146 -4.21148
        -0.734268 -0.525271 2.67725
        -1.30747 3.12211 -2.8477
        -2.55929 -0.0401206 -2.07352
        -3.34931 -1.31147 -0.454591
        -1.59284 2.00149 -0.0362228
        -0.926797 0.0956985 1.03031
        -1.92555 0.421978 -4.44023
        0.141528 -0.2536 -4.13212
        -1.18337 0.162045 -1.78303
        -1.7288 -2.51241 -3.17132
        -1.02377 -0.892137 1.4866
        1.05134 -0.879798 -0.347074
        0.884195 -0.499217 0.263774
        0.625239 -1.8215 -1.03464
        -3.02863 -0.842303 -1.71173
        -3.91529 -3.90201 -1.65341
        -0.969756 -0.143453 -0.303207
        0.0432793 -0.616278 -4.16281
        0.218818 -4.33244 -1.78164
        0.691444 -0.524584 -1.07579
        0.0683494 -3.23265 -2.57059
        -0.689865 3.22945 -2.10962
        -1.66606 -5.00876 3.9461
        2.1353 -1.94784 -0.413541
        -3.4835 1.84605 -2.92579
        -5.67438 -0.304869 -4.47147
        -0.53309 -1.51406 -0.318051
        -1.37743 -3.16757 -0.183182
        -6.15349 -4.40174 -1.11583
        -1.7703 -2.94603 1.38062
        -0.590809 -1.56328 -0.722896
        -4.12619 -1.10429 0.136905
        -0.516288 -1.91191 -0.881398
        -2.10056 -3.94495 -3.74131
        -1.51108 -1.26888 -2.79291
        -2.19541 0.16169 -4.80069
        -0.502105 -0.762583 1.41199
        -1.33109 -4.85247 0.0860918
        -1.93677 0.404491 -0.803888
        -3.05666 -2.2967 2.59578
        -0.952332 1.12095 3.48566
        -1.45739 0.715525 -1.50265
        -0.6658 -3.44207 0.470397
        -1.78625 -6.27672 2.1211
        -1.1966 -5.08829 0.233665
        -1.43693 -2.54519 1.16155
        3.41929 -2.72107 -1.48038
        1.52575 -0.244287 -1.54392
        0.282752 1.5256 2.49815
        -5.0379 0.932266 0.29295
        -2.55617 -5.07625 2.37249
        -1.8048 -3.02606 0.331799
        -2.17667 -1.70976 -0.573083
        -3.4594 1.06449 0.64253
        3.77693 -1.76205 -1.18093
        -6.28983 -1.03286 -1.42793
        -0.443073 -1.34653 0.468411
        -3.08041 -2.13224 4.43525
        -2.99229 -0.961053 -2.29767
        -0.358055 -1.63757 -2.67776
        3.70732 -2.00709 -0.0282695
        0.673888 1.84112 -2.41983
        -1.68355 -1.36358 -0.381332
        0.465452 -1.39313 -2.85631
        -1.97054 2.80734 2.30632
        -2.65876 -1.55599 -0.573571
        -0.558109 3.43013 2.04848
        0.141897 -3.30273 -4.6633
        -3.8281 -2.41604 -2.42993
        0.499712 -0.437527 0.773136
        -1.86587 -1.29362 -0.494286
        -1.12979 -0.829581 0.0994921
        -2.48011 -2.94099 -4.13237
        0.603845 3.95728 -1.83407
        -1.05718 -1.98856 -0.238322
        -1.43862 -3.671 -0.338283
        -6.1003 0.595807 -0.029016
        -2.34985 -3.51354 -2.19403
        -2.14076 0.477091 1.14035
        0.494854 -1.73021 -1.98551
        3.83472 -7.81595 -2.71351
        -5.0993 2.54371 -1.00168
        -2.59475 -2.00601 -2.25214
        -3.37753 1.4873 -0.765333
        -0.902208 -1.74245 -0.19064
        -3.18566 1.91924 3.85365
        -4.55882 0.474132 -0.245435
        -0.990263 0.508708 2.15148
        0.865474 -2.45571 3.7036
        2.56197 -0.769231 -2.19514
        -1.89547 -2.46439 -0.836449
        -2.76289 -0.0863096 2.10273
        -3.46967 0.927486 1.18595
        -4.80188 -2.88657 2.94411
        -1.82897 0.794258 3.40791
        -2.37186 0.0870843 5.50353
        -0.936394 -5.46783 1.63301
        -0.742969 -1.15872 -2.82957
        -0.0512465 -1.78435 -0.338793
        -6.07881 -0.544409 0.269575
        -2.55271 0.273086 -2.24351
        0.317679 0.453731 -1.83932
        -3.57491 -0.126172 -2.03916
        -3.5142 -0.539382 1.07612
        -0.954738 -2.10881 2.59803
        -1.61748 0.703352 -0.445355
        0.795062 0.666523 -2.04315
        -1.21809 -1.96483 2.56257
        -0.484101 -3.04875 0.0465003
        -1.8158 2.80809 -1.11669
        -1.61702 -0.589692 1.64824
        -2.31048 -2.89245 -0.257716
        -0.18881 3.96929 1.31601
        -3.72984 -2.14156 -0.401363
        -1.95595 -1.77887 0.92816
        -1.12053 -1.97553 2.03537
        -2.29243 1.8052 -0.730209
        -6.54804 1.30613 0.374613
        -0.650573 -3.28265 -0.321773
        -2.11548 -3.40387 0.125712
        -2.18392 -2.66612 -1.38363
        -3.40569 3.75983 2.55976
        -4.29719 1.61499 0.505976
        -4.08361 -0.021588 3.46634
        -2.32444 4.51727 1.52017
        -3.49436 -0.98458 -0.561173
        -4.15154 2.34994 -0.119756
        -1.77656 -3.13726 1.67796
        -3.41372 -0.59371 -3.9325
        -2.00553 2.04446 -2.03698
        1.74792 0.428649 -0.103534
        0.253295 0.649812 -1.96804
        -1.21066 -1.00693 1.18776
        -1.25486 -0.413317 -1.54098
        -1.57116 -2.42116 1.51298
        -2.36943 -1.20144 -1.98523
        -0.749993 -3.31473 2.54441
        -2.65262 0.845164 -0.607185
        3.84041 1.42936 0.166688
        -1.80472 4.09645 -3.8793
        -2.48969 -0.658735 -3.14395
        -4.339 3.42612 -2.14774
        -3.25144 1.26256 -0.943108
        -2.4084 -1.42522 0.320512
        -0.687963 0.31538 -0.460284
        0.553076 1.42892 0.973408
        -2.25385 3.90771 -3.03535
        -1.53787 -0.671423 1.1022
        0.815545 -0.548885 -1.43377
        0.896425 -0.765863 -0.454839
        -4.90193 -0.794438 0.0339899
        -2.13923 -0.25428 2.03664
        -0.888748 -1.32248 -3.52868
        -1.13614 -1.41019 0.921245
        0.899203 2.64135 -0.179557
        1.22621 -2.02612 1.24659
        -1.26156 0.555585 1.46873
        -3.74802 -1.28716 -0.437054
        -1.53249 0.572178 -2.41553
        2.77324 4.02199 -1.63391
        -0.663917 -2.16154 0.162597
        0.502587 -0.715616 -2.73446
        -0.741391 -0.15808 0.878706
        -2.28594 2.53822 1.58793
        -0.253166 -1.89513 -3.53255
        -0.948074 0.848229 2.27014
        -0.910205 2.83346 -1.37762
        -3.12833 1.04542 1.1336
        -0.616944 0.450123 -0.142029
        -1.81254 -0.39146 -0.465902
        0.580155 -1.64327 2.80051
        2.39941 0.0698075 0.0121855
        -2.85559 1.66082 -1.09631
        3.00807 -0.828918 -0.73984
        -1.99326 -0.156616 2.08468
        -0.974731 1.09196 -1.72774
        -2.99797 -3.57992 -1.59254
        -0.653248 -3.80601 1.83887
        -0.711505 -0.550408 -1.68246
        -1.78603 -0.0662994 -0.359416
        -2.8671 -2.07011 -0.48795
        -1.24937 0.106738 1.03317
        1.9703 -1.36149 -0.756188
        -0.789536 0.867895 -0.803382
        -3.55483 5.64723 -0.659861
        1.07904 -5.74693 -0.066855
        -2.36403 -2.85941 0.340969
        -1.16486 -1.19773 -1.39009
        -0.558536 -1.1421 -0.15923
        0.815861 2.0389 0.941465
        -3.31529 1.2484 -2.33989
        -3.17519 -3.58847 -0.896565
        -3.23305 2.39413 -0.141225
        -3.01222 1.03996 -5.15948
        -2.29766 1.90248 1.26291
        -1.62698 -1.96669 -1.03865
        -1.29721 -0.84038 -2.08942
        -4.67282 -4.21133 -1.35001
        3.89906 0.293468 -1.91137
        0.868703 -0.53372 1.83495
        2.72383 -1.99407 1.40554
        -3.77773 3.5882 -2.46024
        -2.4995 -3.50162 -1.17415
        -0.344615 -2.04251 -6.76247
        -5.62223 -0.662349 -3.69209
        -0.290277 -1.48495 -3.6103
        -0.625479 3.12802 -1.26073
        -2.84574 3.14891 -0.188765
        0.269391 -0.920077 0.532005
        -2.20109 0.633656 -1.89317
        0.701297 -3.4847 -0.473575
        -0.366078 0.692158 -4.8041
        0.342992 -3.94075 -0.560352
        0.532229 -0.227093 0.938481
        -1.66526 -0.0878976 4.80119
        -1.15746 0.450668 -0.066426
        -1.05141 0.907024 1.25752
        -0.411156 1.94978 0.90898
        -1.16455 4.00359 -4.43225
        3.13628 -2.15881 3.17622
        1.09035 -0.48988 2.02465
        -2.84702 -0.166706 -0.97901
        -4.72764 -4.78743 0.151452
        -0.74853 -4.88636 -2.91236
        -0.487584 -2.3054 0.524575
        2.71894 0.474203 -3.1598
        1.52127e-05 0.140512 -3.1947
        -1.86558 2.79287 -2.27955
        -1.22013 0.431033 2.49596
        1.60469 0.21759 -1.92138
        -0.301403 1.35437 -4.66565
        -0.899552 -3.06125 -0.0499937
        1.77819 -0.414749 -1.31822
        -2.58798 -5.00412 -5.32123
        -0.519357 -0.971803 1.67885
        1.98055 -2.34583 0.996608
        -2.46191 -0.385839 -1.70142
        -1.88008 0.0546079 -4.12513
        -1.18812 2.58838 -0.407608
        0.00791432 1.04583 -1.27752
        -0.712537 -0.39538 -3.99214
        -4.60042 0.529683 -2.05817
        -0.752583 -1.34434 -3.32719
        -2.77556 3.60463 -3.56157
        1.22231 0.40764 0.896879
        0.116132 -4.37155 -3.54084
        3.44347 -3.97557 0.432954
        -1.37846 2.27216 -2.58098
        -3.63042 1.63493 -0.772014
        -1.64537 -0.100747 1.39093
        0.723017 2.80187 0.331159
        -0.387182 0.0370757 1.93144
        -0.896476 -0.594376 0.978238
        -0.555951 -3.37539 1.4511
        -0.889671 0.164739 0.561089
        0.686814 -5.33653 -0.78566
        -0.56798 0.953828 0.899246
        0.5219 1.17987 -2.46565
        0.0842964 -1.36483 1.66936
        5.1202 2.8134 -2.91835
        -0.64572 -1.36524 -1.65362
        2.55955 -0.744766 -1.78278
        -2.44076 0.458488 -3.10131
        -0.721756 3.55868 -2.74603
        -2.12584 -4.34966 -0.103011
        0.381957 3.11682 -0.536193
        -2.05196 1.47967 -0.220706
        -0.137649 -3.54467 -0.791053
        0.409833 -3.36697 -0.901666
        -0.584382 0.960524 1.00933
        -0.709179 -1.61315 -0.0231583
        -2.21308 -1.27341 -3.11586
        -0.981427 -1.60206 -0.305752
        -2.84625 5.75569 -2.23694
        -1.54966 -0.181399 -1.35251
        0.165357 -4.32164 0.147167
        0.0243868 -2.5539 -1.76787
        0.189474 -0.00120136 1.785
        3.15604 -1.80763 2.11022
        -0.0636382 3.34084 -1.76647
        -1.94683 4.61055 -0.82722
        0.356718 0.232817 -2.71638
        -3.69584 -0.180459 -3.93413
        0.383709 -1.99342 -2.2974
        0.951203 2.14215 -3.78615
        -3.13453 0.0683129 -3.29195
        -0.599358 3.45838 -1.80807
        -2.02833 -0.519121 -0.404505
        -4.92441 2.92422 -0.511146
        -1.42866 1.74077 -2.17883
        0.269099 -2.56604 0.0647955
        2.61801 -1.34695 -1.04884
        3.16576 2.19714 -0.885694
        -1.25528 -2.95001 -0.048703
        -0.915536 3.13965 -2.21392
        3.49008 -1.67029 -1.4907
        -0.710536 1.16548 -1.57616
        -4.07181 1.63208 0.260322
        -0.979398 -1.08229 -0.0285388
        -1.63693 -5.63713 -1.10845
        -3.00677 -3.39172 1.46544
        -1.98193 4.27682 0.808568
        1.60186 0.925501 1.85038
        1.44047 1.85685 -2.52708
        -2.41903 -0.887127 -4.23625
        -2.96628 -1.32206 2.16357
        1.05089 -1.52549 -3.71312
        1.11879 1.46247 -1.31089
        -0.2535 0.190952 3.69914
        -1.81691 -3.32046 -0.998959
        -2.20435 1.96275 -3.62449
        0.133963 -0.71819 -0.820323
        -1.71394 -1.21767 -1.88318
        1.18067 2.41795 1.85106
        0.153385 -2.06119 0.996025
        -1.96794 -2.88731 -2.71545
        -0.162552 -1.83832 -2.81291
        -5.3564 -0.948867 -2.43065
        3.16085 -1.52451 0.826586
        1.95595 -0.36799 2.76166
        0.913837 -0.262107 -1.56752
        0.755255 2.27279 -1.37646
        2.4043 2.30311 -2.11219
        -0.511748 -2.72879 0.627352
        -0.373082 0.819528 -4.44294
        2.23071 -2.78279 -0.460053
        1.88569 0.0051332 1.22286
        0.438279 -0.78994 -6.15515
        1.64395 -1.85804 -0.136165
        -0.665527 -3.58903 0.805591
        0.300622 1.60507 0.318701
        1.77613 -4.03978 -0.507782
        2.44408 -1.08512 -3.65326
        0.118429 0.362897 3.81231
        -1.95257 1.16213 3.76626
        -0.697946 -2.85876 -3.03696
        -2.29411 0.206217 -2.51981
        0.554952 1.71962 0.345258
        2.02628 -1.01972 0.975933
        4.82018 -2.41668 -1.72466
        3.32127 -3.11966 2.59831
        0.14061 3.58181 2.71735
        3.11977 -6.21904 4.22665
        0.687773 2.84656 0.424609
        1.01518 1.3545 -3.79605
        -2.14191 -1.87171 -4.12013
        -0.437683 -0.831818 4.63663
        3.03646 -3.05012 1.22141
        0.696337 -1.61446 -0.336877
        -1.59148 -0.197241 -2.90074
        -0.295311 2.55199 -1.11715
        1.94495 -2.56483 0.598201
        0.550887 -1.83168 -0.371459
        1.53818 1.57311 1.78863
        -3.79807 -3.17625 -1.4111
        -3.21351 2.80913 -0.43533
        -1.63853 0.190961 0.0358694
        -0.464655 -1.2159 3.75361
        -0.582691 -1.59948 -0.853823
        -0.710496 0.123792 -2.60987
        -1.72922 0.762951 -3.0781
        -0.242183 -1.68393 3.46994
        -3.18496 -2.30451 1.28663
        0.424118 -0.503317 0.751617
        0.422648 -0.848479 -0.408226
        2.41457 -3.45236 -4.21477
        0.420438 1.46105 4.35121
        -6.311 -1.85431 1.20804
        -0.654702 0.912986 -2.60166
        -0.817385 -2.76158 3.36096
        1.34405 -1.15578 -1.56132
        -1.37547 0.50111 0.861262
        0.392884 0.477083 -0.336548
        1.57878 -0.887833 -1.4055
        -1.89108 -0.667243 -4.20742
        5.9614 2.81752 3.26537
        -0.182077 -1.63437 2.6471
        0.827999 5.24324 -2.759
        -3.01223 -2.29616 -4.36501
        -0.40438 -0.30819 -0.695192
        -2.97834 -1.39136 -2.77187
        0.0790455 -2.87995 1.03471
        0.811355 -0.983963 0.312357
        -0.689318 -0.926758 -2.10743
        6.30345 2.00837 3.80624
        2.64697 0.875182 -0.543778
        0.33535 1.52645 0.586181
        0.168676 -2.81006 0.778997
        3.53265 -1.14831 -2.93045
        -2.26509 -1.18526 4.21273
        -0.66877 -3.29693 3.05423
        0.669655 -1.72853 -2.44027
        3.67054 1.61419 -4.2078
        -2.37611 -0.548657 -2.53904
        -1.08724 -5.00425 1.22989
        -1.19165 -0.219227 -1.90519
        1.78328 -3.18611 1.26685
        4.79133 -1.52769 -2.07929
        -5.32292 -5.47695 -2.24998
        -0.84501 -5.78784 -1.87067
        -1.57759 -2.26181 0.897858
        -0.345948 -1.61576 -5.478
        2.59057 -4.38323 1.9653
        1.8385 0.269269 1.10938
        -2.58727 1.25265 -1.19188
        0.613711 -0.801485 -4.26262
        1.71354 -0.724725 -2.94198
        5.59399 -1.74938 -3.99549
        2.57701 -0.995032 -0.0948393
        1.45851 -0.826912 0.223345
        -2.97687 -5.20717 0.0170461
        -1.66535 2.32617 1.29011
        3.86531 1.6029 -0.0518658
        -2.33148 -1.11313 -2.66998
        -0.557674 -1.37329 -5.09791
        0.0332491 -1.06821 0.560542
        -2.42196 -3.00888 3.11841
        -3.39177 -4.82753 -1.47417
        -1.206 -1.99425 0.552739
        2.5146 -3.46381 1.95816
        -1.89925 -1.17452 -4.75317
        0.72995 -1.00056 -3.65259
        0.474778 -1.3121 4.30229
        -5.1489 -1.81734 -0.355679
        3.11914 0.717549 0.0676988
        5.29301 -3.73838 -0.223827