<?xml version="1.0" encoding="UTF-8" standalone="no" ?>
<VTKFile byte_order="LittleEndian" type="UnstructuredGrid" version="0.1">
  <UnstructuredGrid>
    <Piece NumberOfCells="0" NumberOfPoints="15094">
      <PointData>
        <DataArray Name="velocities" NumberOfComponents="3" format="ascii" type="Float32">
        -3.29495 0.643328 4.42221
        2.87289 -3.20731 -6.30663
        2.32986 1.92552 0.826184
        -1.63731 3.18852 4.14668
        4.46985 1.26493 -1.59998
        -2.45962 -2.51568 -0.862624
        1.07492 -0.605273 1.61213
        1.43939 -4.51596 -2.91
        -0.706511 2.67745 -2.38877
        -3.54884 -5.42706 -5.06205
        1.54819 -8.26516 0.534854
        2.6936 -0.589572 -3.16494
        -1.80586 4.80434 -3.82925
        -1.23567 -1.25295 -0.28119
        0.573178 2.60433 4.57122
        -1.89472 -1.92547 -5.24624
        -2.42396 -1.3137 0.322777
        -0.0410095 -1.53434 -3.32608
        -4.29942 -4.2749 5.88065
        2.57154 -0.673821 -7.6632
        -0.879058 -0.0661233 0.150426
        -6.3246 -0.396107 -4.17755
        4.68996 -4.25106 -1.88572
        3.07782 1.46502 1.72439
        -0.118658 7.02862 -0.880894
        -2.33675 1.20589 -4.26036
        0.26557 -0.751295 0.218903
        4.7616 3.24682 -2.80487
        0.258633 -2.10829 -7.10628
        5.26482 0.314732 0.585659
        1.36283 4.73724 4.13436
        2.52542 -4.65781 -0.954616
        -2.12036 5.95642 -2.29299
        -2.03841 -1.19827 -1.56431
        -2.55053 0.279819 -5.83852
        -2.42489 1.1531 -1.52292
        5.36706 2.25106 5.69182
        -1.63478 1.05774 -2.16828
        -1.05886 2.95216 6.0924
        2.74832 7.4521 2.37526
        -0.490019 -0.0934233 -1.81509
        3.13832 2.28722 -0.599491
        -3.315 0.870649 3.47714
        10.66 -1.10514 -2.15303
        -1.7339 3.23273 -4.99382
        -0.657844 -3.00083 2.46474
        2.05504 3.66968 7.52173
        1.20744 0.420187 -0.229801
        4.857 -2.33544 3.00037
        1.28217 -0.598663 3.43651
        -3.61633 -3.12754 -0.69607
        4.44974 1.79806 -2.44424
        3.99491 0.00286763 0.421078
        -1.00703 5.38529 -2.77611
        4.33479 5.38599 -2.10213
        2.10436 2.86839 -0.804117
        1.93314 2.45362 -3.2251
        -3.71364 5.554 0.579722
        -3.31397 -0.148115 -1.16962
        -0.353324 6.99066 -8.27401
        -0.228837 5.10377 -0.0837397
        -0.0865284 -3.35585 -3.11337
        -5.89796 3.32123 -0.942131
        -2.5213 2.54706 -2.837
        6.28977 3.7867 0.0664155
        -4.63986 -3.32698 -1.8908
        5.07675 -5.06624 2.98112
        -0.406133 2.2267 0.690299
        7.12536 -1.31877 -5.28885
        0.774469 -4.07241 2.92697
        -1.71333 -0.340794 -0.60309
        2.45374 1.1797 0.441002
        0.525015 3.19514 3.27789
        3.44684 -5.71035 0.105719
        0.420656 0.891353 3.40788
        -0.58932 -3.39145 6.2263
        2.34328 3.53534 -3.18918
        -11.0843 5.11993 1.19906
        2.63866 -0.403253 -1.87401
        -6.81099 -0.659262 4.18089
        -2.79633 -0.868229 1.37025
        2.45685 3.86397 -1.0439
        -2.71151 1.50642 -3.82162
        1.34899 3.86104 -2.05783
        -3.91554 0.425942 -4.2276
        6.79897 1.37222 -0.634561
        0.794334 2.17228 2.59657
        3.03156 1.50079 2.73383
        2.40924 5.49851 -3.58905
        2.79559 -0.765665 1.4454
        -2.75222 2.36663 -1.95225
        2.47139 1.97349 1.50986
        -0.758352 -0.85811 -3.96371
        1.56637 -5.54572 4.73228
        -0.193041 4.24972 2.38288
        1.05513 4.27449 3.08063
        -0.893154 1.75689 -1.39202
        0.555315 -3.82647 1.64609
        2.46012 -1.84132 -0.759316
        3.94783 0.0786343 1.19095
        3.18358 1.41012 1.84444
        1.38836 -1.85692 3.91686
        1.02184 -1.00751 9.75086
        7.98624 2.84219 1.798
        -2.25494 1.52905 -3.11024
        -3.53385 -2.30134 -2.11854
        5.74725 -2.08388 -4.34592
        5.21724 2.86091 6.53581
        0.434128 2.03944 2.27366
        -1.11254 2.08167 -1.18646
        1.17377 -2.76241 5.2188
        -3.35908 3.02256 1.0393
        1.89745 3.4981 -1.55736
        5.46794 -1.80942 -2.58461
        5.9624 -2.65707 -4.11407
        -0.131455 -3.42072 -3.72069
        -2.592 2.17386 2.04978
        0.31184 2.46999 -3.48894
        4.07974 -2.87618 -2.52869
        0.869204 1.10403 -0.263227
        -3.8092 2.3521 0.702078
        0.0931036 -3.16518 4.16774
        -0.115038 2.8075 -0.795167
        0.883702 -0.866147 -3.36162
        -1.56408 -0.372065 -4.19649
        4.76639 -3.03896 2.53058
        -3.22808 2.43211 4.16643
        1.55229 5.08598 4.46713
        3.32725 -2.8898 -3.04153
        -4.01468 -2.17764 -0.644183
        4.56993 -1.20194 -6.29385
        -6.60428 -5.45101 3.47685
        -0.685493 -7.62778 -1.52037
        2.73773 3.90935 1.02441
        0.998105 -1.65707 -0.967946
        1.43763 4.16715 2.70402
        -0.423546 5.32734 0.96286
        -1.60195 3.94637 -3.2368
        -0.832193 4.29583 -2.9326
        0.502225 5.64538 0.81973
        1.72029 0.632596 3.16004
        2.58842 3.57836 -3.08174
        1.48261 1.88786 -1.17816
        3.5294 -5.79988 -3.20239
        2.3312 -4.40166 -1.37916
        -1.93898 0.862833 -6.67334
        5.39112 4.02068 -0.887019
        5.26113 -1.69548 -4.33112
        -4.87193 -1.86723 -0.77991
        0.148786 -2.91503 -0.123707
        1.09211 -7.53157 -8.89958
        4.89164 -3.08836 -1.45254
        0.221619 -5.32657 -2.62821
        4.6919 4.27197 3.96096
        1.1449 2.49133 2.41055
        0.646697 0.294664 3.71093
        3.67095 4.89274 -2.94853
        2.2486 -0.919411 -7.10143
        -5.40895 -1.28053 -3.56865
        -1.14081 1.24666 -9.99309
        -2.17754 -1.03659 0.79284
        -0.413487 0.868182 3.1846
        -2.98662 0.924144 -2.0906
        -2.81665 -3.02597 -1.80449
        3.70675 0.340564 4.65879
        2.00496 2.97453 2.64196
        2.04629 1.05031 -5.08706
        0.318093 5.56894 2.47294
        0.295383 -1.62097 -3.89513
        0.143549 -2.79109 0.128329
        1.12633 3.06216 1.6697
        0.416923 -1.36348 6.39363
        4.21366 5.10375 -4.39291
        7.63488 4.01231 -2.93195
        -1.01795 -6.16673 1.88722
        2.37553 -5.67088 -0.710037
        -5.43511 7.09989 3.42325
        4.26961 0.131719 -2.66271
        1.55051 5.37119 -3.98506
        -0.178576 -1.57816 -0.29212
        5.47079 1.82475 -1.61179
        -3.65269 2.4883 2.07947
        -0.265385 0.733767 0.583552
        -2.5439 3.38631 -2.36268
        1.63533 -0.279107 3.95688
        -5.11573 -5.7575 -3.303
        -0.414024 -4.01183 1.95406
        5.25751 0.523384 0.226303
        8.86859 1.93785 -1.10442
        -2.48994 -0.127292 -5.31509
        -2.99219 2.23913 3.1686
        1.43829 0.548772 5.89673
        0.812808 -0.748594 -4.03517
        1.58764 1.00396 -0.43935
        -2.39193 2.12478 0.0456413
        -4.42777 8.78124 0.110185
        1.0341 -0.840892 1.957
        -2.70713 1.03396 1.99005
        1.30889 -0.2646 2.13808
        3.93311 5.95932 1.13988
        0.903066 -1.52795 -2.6712
        3.26193 2.86044 0.311752
        1.51003 -2.17775 -4.08965
        -1.96927 -1.25168 1.46855
        -1.02942 1.33583 1.29277
        8.26508 1.51464 -3.88119
        2.6197 0.664625 -1.31539
        3.49675 -0.267793 -0.919698
        0.00249337 -1.2294 3.47854
        -0.133625 2.94132 -0.486209
        9.57447 0.238429 3.76442
        -2.66724 -0.56252 3.13494
        4.79037 -4.19981 2.99934
        -0.221604 -3.15991 -4.61219
        1.00322 -2.86134 2.53951
        -0.669572 4.19558 -4.97255
        3.36813 0.0378896 -8.87521
        3.41842 0.702231 -0.284095
        3.84344 -0.676995 4.10082
        1.7137 3.35202 -0.997946
        11.3222 3.16924 2.36648
        -4.6384 2.81496 0.71822
        0.465878 -3.02483 -3.94004
        8.17837 -4.598 0.818009
        -0.946955 1.45909 2.89307
        -2.78375 5.01987 0.736224
        0.793745 4.75513 0.628873
        -1.11341 -4.46056 -5.44228
        -1.87968 1.55459 -3.13029
        4.25163 -0.203444 -2.01911
        3.08153 2.57893 -0.997415
        1.56497 1.05865 0.0278611
        0.455402 -1.88308 0.46773
        -3.1513 -4.0772 -1.76352
        2.2936 6.77505 -1.75764
        3.16687 -0.472176 -4.1399
        -0.0379981 -1.73476 -3.02362
        4.96778 0.794922 -1.45841
        1.85265 3.7013 0.913115
        -3.45314 -1.18823 -1.20554
        -1.86239 0.870104 3.49449
        2.61901 0.2038 -5.84578
        -2.6492 2.19518 -2.71553
        1.04466 5.65653 -2.31449
        -0.952103 -0.788225 1.18903
        -4.51197 1.64248 2.16217
        6.81349 -1.64557 -4.83
        -1.01789 -1.89039 1.0517
        1.00119 -0.281225 -0.327593
        -1.1569 -3.67664 -1.40718
        -0.151257 0.520492 2.52086
        1.04412 4.2168 -3.28268
        -3.88166 4.2118 1.06377
        2.76922 4.09059 1.16834
        -1.60142 4.17691 -0.726471
        -0.50324 0.0764229 1.973
        4.72244 4.37108 3.91457
        1.52495 -7.52335 3.89527
        0.367069 -0.223597 -1.09324
        -3.52338 -3.75263 2.07411
        -2.93371 0.243594 1.19591
        3.57243 0.0325035 2.12965
        -3.93805 0.749382 5.06994
        1.68479 2.84823 -5.82768
        -0.924108 2.53721 0.617788
        1.70561 -0.030405 -1.4138
        3.02866 -3.84172 -1.281
        8.17744 5.34385 1.30572
        -5.01072 2.84033 -5.39756
        -0.592351 0.514875 2.57966
        3.60442 2.00153 -3.24627
        0.962811 -5.74144 1.59673
        -0.0173801 2.21003 -1.01022
        -0.260667 2.42486 0.118274
        -1.10458 -4.70593 4.0964
        -0.951551 -1.55708 -1.2769
        3.36604 6.07909 0.350473
        3.85361 -0.389103 5.82964
        3.56596 -2.00201 -4.70862
        -1.85899 -0.445025 0.637932
        2.71718 0.905262 1.45228
        -1.78273 1.57338 -1.25414
        -2.57757 3.26267 -5.89563
        2.88637 2.30545 1.9371
        4.14772 -1.26149 -0.925975
        1.64987 -4.15414 3.18369
        -0.571817 -3.1872 -1.70847
        3.03947 2.89296 -1.28172
        -1.9051 8.5946 3.27679
        -0.187229 -6.70308 -0.581923
        -0.970032 0.974403 -1.35894
        1.77256 -2.54075 2.40968
        4.79525 -1.24498 1.62675
        -0.63423 -3.72201 -1.02325
        -1.14281 3.85101 1.79022
        1.61103 5.37158 -4.17945
        -1.21725 1.25559 -3.88452
        -2.52986 0.143369 1.23626
        -2.10159 3.27524 2.94791
        -5.47396 -0.658892 -0.460133
        -3.26447 1.32025 -5.70891
        0.0625586 -2.1521 6.2705
        -2.51603 0.164569 3.0091
        1.19424 0.590286 4.51348
        0.754814 -4.23989 3.08291
        -2.12084 3.54998 1.97238
        1.49947 -2.62134 3.29123
        0.119881 2.54618 -1.72811
        -3.83955 -0.712934 0.221287
        -3.56535 0.225908 -0.204417
        -0.357611 3.99176 2.39717
        6.84226 -2.64366 7.45432
        3.97007 2.79183 -2.53221
        0.828102 -3.57657 -2.93509
        -0.606789 2.75952 -2.38337
        -0.171763 0.883119 5.6669
        -1.85678 2.37248 -2.4806
        -2.00829 -1.12346 -1.46557
        -0.521788 4.87649 -8.09908
        -2.33133 3.54308 -5.64043
        3.0301 -1.54331 0.989178
        4.03721 -1.2957 -2.43891
        0.696659 -0.540807 2.99323
        0.511145 1.39233 -4.59672
        1.84536 -4.57364 -0.364719
        -7.09561 2.21793 3.21358
        -1.72167 -1.52638 -2.33547
        1.91212 2.80345 -0.390429
        0.831844 5.94612 -2.30605
        -1.10026 -1.05472 -2.51151
        -1.62971 -0.706551 -1.86723
        -0.709425 -2.63714 -4.71422
        -1.56193 3.72105 5.12959
        2.65703 2.98581 -5.09078
        -5.43383 -2.08149 0.525657
        1.35206 0.938804 -0.377201
        -1.34016 2.70557 3.82158
        0.130376 -4.0738 -1.6689
        2.38213 5.38395 -1.44005
        -0.199392 0.991727 -3.20929
        2.65103 -0.279371 -0.342667
        1.1507 0.53358 -1.81693
        -0.725744 0.522023 -0.38079
        -1.74193 2.70736 6.69734
        -1.69103 2.14476 3.00898
        -0.257448 2.45665 -9.08318
        0.737216 -2.27315 0.370861
        -1.41323 -6.31157 -2.41909
        3.875 2.04592 -2.11191
        -1.58224 4.67331 1.25546
        4.19993 -2.5268 6.84819
        1.38518 -1.95402 3.10871
        -7.98373 -4.01571 0.954946
        0.529777 0.371099 6.5924
        3.42322 -7.38882 -1.07059
        0.296699 2.68243 -0.244321
        -1.02721 1.12939 -4.58871
        2.83784 -0.584965 -0.884241
        1.2719 -3.59835 1.51657
        -2.84297 -2.43459 -1.60972
        -0.740231 -5.35007 -6.13729
        5.7396 -1.03208 1.6322
        9.53342 1.25662 -1.91313
        -2.6966 -0.0582977 8.27687
        -2.49846 -4.66204 -1.38775
        -2.18351 -0.961779 -0.158644
        0.0854799 6.57604 -1.09653
        -6.29113 3.54987 4.50807
        0.928717 -3.19597 2.68333
        1.37365 0.193186 -1.62556
        2.11412 7.48056 2.95817
        1.85863 5.23701 -3.6781
        5.32077 -2.56318 3.30993
        -1.42789 1.77088 2.77343
        6.19435 1.70255 -0.109156
        -3.08519 0.179921 -0.797698
        0.51557 1.85774 -1.80557
        2.01708 -1.13791 -2.97298
        -2.06363 0.500085 0.451455
        -0.216711 2.62515 3.78299
        -0.808474 0.0723229 1.60289
        -1.31634 -1.33725 0.67039
        -2.15425 -5.26483 -6.51733
        0.740144 -2.44899 2.23188
        -3.61851 0.745911 4.15826
        7.06135 2.86072 -5.17446
        -0.962443 2.15124 0.182345
        2.2843 -2.85016 -0.504633
        1.81878 0.26935 0.81339
        -4.0486 -4.18406 -3.1329
        3.60438 -1.27981 -3.48146
        4.746 -1.47397 -1.18141
        6.15534 -2.14163 -5.38281
        -3.32023 -3.61077 0.0445326
        5.80196 -1.2655 7.25869
        4.48315 -4.95931 -2.13358
        6.15309 2.78848 2.76572
        0.937767 0.499331 6.06372
        1.48528 3.34081 -0.561735
        -0.807579 -0.0859096 -1.13066
        -3.8979 3.83884 3.2308
        -1.50419 1.02315 -1.85462
        1.66333 2.10629 5.41501
        2.04933 1.84249 -0.0276172
        -2.83246 0.621071 4.49717
        -1.0261 2.43709 5.02196
        4.79859 -0.868045 -0.58939
        -6.21583 -1.26685 -0.199259
        -1.59174 -1.81249 -3.87932
        -1.33255 -4.5348 1.67003
        -2.58956 -4.16552 0.011835
        3.73624 -3.75883 -4.12385
        -0.395545 -1.35125 1.69108
        3.7392 0.84186 -0.617448
        0.40512 1.11822 -0.252057
        -1.84748 6.04182 1.87584
        2.02734 -0.941251 -2.23526
        1.53398 3.65657 -2.09913
        2.8058 1.27405 -5.71612
        -1.51594 3.68631 1.97639
        -0.0203342 4.25102 4.09408
        0.339728 0.888802 -2.19031
        5.5187 -0.946167 -0.589987
        -2.90786 -0.118695 2.76419
        -3.74972 2.38106 1.2398
        -2.60479 -2.80429 3.42081
        3.75488 -0.755558 2.26478
        -1.85831 0.274116 0.18791
        0.809189 0.563695 3.41468
        1.54808 -1.95644 -0.0470928
        -4.97751 -1.80798 1.97305
        1.0608 4.25009 -2.39966
        2.12918 -5.38717 -3.48235
        0.0475339 6.01438 5.90576
        -4.63884 -0.91896 5.30893
        5.98334 -3.17308 6.40692
        6.48846 -4.75286 0.431118
        -1.60259 0.974481 -4.60778
        5.31738 -1.21664 1.54602
        1.86179 0.0950685 0.372698
        0.102376 0.00126033 0.798363
        -3.88303 -4.76633 -1.28242
        2.64106 2.16966 -2.0051
        -1.99794 -0.485691 4.19354
        3.55368 -5.38966 -2.79887
        3.49529 -5.33659 -5.62294
        -3.43179 1.38934 7.46101
        0.94769 0.833659 -0.989933
        3.10254 2.94694 -6.00619
        1.6539 -4.65109 2.84082
        1.3614 -0.276246 1.15571
        -3.5733 -3.29279 -4.55372
        2.2508 -3.64815 -3.52889
        3.10592 1.96264 0.987735
        3.36404 2.60572 1.62502
        0.252322 0.382582 3.31974
        0.26367 -4.58797 2.3626
        0.635328 1.87859 -1.08068
        -2.97764 0.263603 -0.456864
        1.50533 2.30742 -3.68406
        0.928469 -5.04608 5.27825
        4.11537 -1.47559 -4.90687
        1.60847 -5.37244 1.94502
        6.55681 2.57965 5.30336
        -0.740445 -0.72231 3.01719
        3.85742 2.68328 0.148749
        -2.10755 -2.13793 2.63269
        -4.05915 -2.14155 -4.74791
        -1.93868 0.165137 -2.12065
        -2.36612 6.04919 2.15025
        -1.62903 -1.10105 4.75398
        4.72996 2.21948 0.440313
        1.46806 2.44763 1.96413
        5.23492 -0.938383 -2.97787
        2.43653 -3.36469 1.07062
        -0.597353 4.56099 1.63972
        -4.84327 -2.86266 1.5677
        -2.69639 3.83869 3.48557
        -3.20987 1.84329 1.16295
        -1.03007 1.56776 -1.21876
        0.179473 4.00507 2.05674
        -2.51202 -0.588861 -2.55275
        4.10814 -2.64262 2.18345
        -2.50628 -5.04802 -1.42352
        6.45402 -2.64663 -2.10935
        0.0916219 6.52959 -3.8788
        3.14101 -1.02503 1.00458
        -2.1287 -3.91409 5.00275
        -4.1213 0.686449 -1.258
        2.26154 0.660138 0.83658
        -0.21439 2.57518 1.61613
        0.417041 0.328839 -3.8758
        2.03186 -1.19841 -2.02117
        -0.716387 -0.530383 2.06052
        0.87317 -3.11311 -2.4678
        -0.383333 -0.874232 -1.31712
        0.84557 -4.04548 -0.268744
        -4.96062 1.79986 -1.68383
        0.326969 -2.28693 1.22591
        -4.7445 -0.669492 -2.86738
        -5.54326 -0.448416 -3.65159
        1.236 -1.83255 -7.22026
        3.84694 3.91628 0.818422
        1.43557 1.06275 3.31293
        -5.36731 -3.15371 -0.543665
        -1.37438 0.260594 -3.44042
        -7.30843 -0.7918 1.79235
        -1.18747 1.39024 5.74182
        -2.89246 0.266391 0.889374
        2.443 -0.0838533 1.12435
        2.50286 -4.02015 -1.66715
        4.85691 1.88993 2.68625
        -5.92717 5.87221 -2.17888
        1.54571 1.95671 -1.32724
        -0.306206 3.67283 -0.629728
        2.50773 0.589542 -1.59992
        3.4256 -5.7879 -0.985119
        1.33375 0.0720321 -0.511468
        1.83675 -5.18653 3.43434
        0.0616055 -4.18995 -1.20521
        1.40167 0.109847 -2.88343
        -1.01778 -1.37047 2.92284
        3.95967 7.14069 -6.17567
        7.98787 -0.956645 -2.03731
        -1.14076 2.87829 -4.79575
        5.54521 -3.54398 1.50479
        -2.01625 -0.692973 4.7889
        4.40349 9.85391 -5.9332
        2.90818 2.9936 4.00959
        -5.02674 -0.834239 0.0965746
        -1.11055 -2.6212 -2.47956
        3.71865 2.47371 3.01643
        0.952767 -4.48348 -2.18319
        4.19297 3.65507 1.52132
        -4.48541 -5.2605 -4.58829
        -0.0116339 5.10408 -3.83264
        -2.39826 4.02795 2.0542
        -0.275698 -0.642773 -2.27705
        -2.65899 -8.18706 -3.46123
        -0.794168 -1.67596 -3.13914
        -1.03168 -0.816181 0.94495
        -1.78542 1.92316 3.85077
        -1.27571 -0.505802 2.32245
        -3.6624 -5.69307 1.3815
        -0.138404 2.33251 -3.25027
        1.24289 4.80244 -2.06514
        5.78406 -0.724981 -0.443031
        2.155 -2.82037 -3.49915
        -0.326392 -3.88187 -1.80786
        2.59468 2.905 4.37089
        -0.290996 3.15254 8.5523
        1.87028 -2.29295 -4.00155
        3.73401 -0.991588 2.04009
        2.34347 2.57004 -4.47263
        -0.586589 0.140951 3.92189
        1.80484 -0.670856 -1.46088
        -1.59344 -2.43341 -5.11441
        -1.24976 0.388922 -0.238912
        2.47637 -6.29184 2.54656
        -0.485387 -4.56602 3.06042
        -1.49737 -2.2359 0.795027
        -1.66612 1.96118 0.348189
        4.47718 5.30552 2.70297
        1.95854 4.06587 -4.13974
        -3.98839 -5.39493 0.163149
        1.44227 -3.16963 4.06944
        -5.26688 1.63535 -2.43024
        -0.536409 -3.99382 3.2087
        5.27995 1.59124 2.39596
        -1.40492 0.160064 0.464303
        -1.61716 -7.52738 1.92059
        1.7292 -0.481441 0.394759
        2.6747 -0.272153 4.58457
        0.378693 -0.641176 -5.92745
        4.1391 -2.00887 3.69487
        -2.41724 1.99113 -1.20833
        3.31151 -2.54669 -3.04115
        -5.00096 -1.85638 -0.507283
        0.247286 1.4829 5.08752
        -2.38455 -3.11307 0.123959
        2.49753 2.1426 -2.33218
        -1.63022 0.124998 -0.697093
        -1.76003 -0.824396 4.53496
        -1.67543 -3.17095 -1.42519
        -4.96745 5.44529 -0.796471
        -2.82709 7.51278 -3.00466
        -3.34552 -4.52608 4.67192
        1.77593 3.54542 2.80559
        5.6811 -2.27356 0.486396
        4.86367 5.74241 -0.63653
        0.266068 -0.251648 0.0470822
        1.7192 2.56485 1.87126
        -7.92432 -0.669213 -0.0611068
        -1.00294 -4.43085 1.96274
        4.75016 0.720569 1.83815
        -0.311502 0.51344 0.355441
        1.13158 1.16904 2.09924
        1.46171 -0.729988 -7.19268
        0.418804 0.638304 -2.1008
        0.336339 3.11636 -0.249443
        -0.608312 -1.37452 2.7149
        4.25497 -2.67439 -1.08242
        2.7888 8.617 -2.71837
        3.31772 4.62882 2.53782
        3.05991 2.17221 -0.471008
        2.01128 0.445547 -1.6028
        -6.40915 4.78225 -7.70214
        2.23978 -0.0979434 -3.75375
        1.28425 -1.81337 -1.92898
        -0.356325 -0.586507 0.339044
        -2.49036 0.349124 -1.87963
        1.49137 -0.825321 -4.06312
        0.450194 1.434 2.60452
        -0.408458 -2.43277 2.23582
        -1.34099 -0.943711 0.194501
        2.3435 2.93802 3.15517
        1.0588 1.9361 2.51882
        -3.95048 2.29366 -0.522104
        -1.85273 -0.946388 -1.17181
        4.58118 2.24775 -2.72367
        0.31846 2.88989 4.5049
        0.416048 2.77123 3.23706
        -0.0395336 1.55646 -0.474934
        -0.204856 3.00307 -1.55681
        0.815584 -3.43409 -4.74541
        2.89655 0.326388 -3.77092
        1.21318 1.33815 1.27172
        2.8455 3.95261 -1.85323
        0.432034 -1.36773 0.0528727
        1.51258 -0.499326 4.56109
        -0.562764 4.22671 1.37766
        4.3631 -0.834513 0.984717
        0.065742 -0.00321207 0.192989
        1.09878 -4.99814 -3.37997
        2.91259 1.01394 0.191306
        -2.82043 5.92299 1.97213
        -0.258126 3.51713 2.42563
        -2.80219 -2.1293 2.17021
        1.86761 -0.00690969 0.633803
        -1.386 1.68437 -3.16926
        -1.019 1.7482 -1.47284
        -0.252574 2.88734 0.51407
        2.78862 -0.608954 3.44378
        -0.43132 -3.41424 -4.76272
        0.0654217 -1.2316 3.31655
        0.0779767 2.33466 -4.7746
        -3.81459 -3.94649 3.35499
        3.3236 -5.20273 5.34793
        2.4168 -5.07353 -1.22052
        -4.98975 1.35258 -3.07594
        -0.229319 4.55973 -3.87282
        2.34435 3.92679 2.3506
        0.357064 -0.821982 -2.95303
        -1.59185 -3.52381 2.73708
        1.72351 -4.29254 -5.3177
        0.361755 -1.12585 -1.83504
        -5.00001 -0.288444 -0.962885
        4.95273 -1.98577 2.20234
        4.18307 4.91627 -1.00048
        -3.42235 1.58401 3.1097
        1.1939 5.16058 8.53413
        -2.45067 2.98079 1.1368
        -0.387058 2.4589 -4.85624
        4.09232 4.72271 -3.14737
        -2.2895 -2.4291 0.216802
        2.89377 7.51732 6.31297
        -3.37296 1.02972 3.15367
        2.25202 0.721373 4.22814
        3.17222 5.07735 0.75712
        -0.910362 -4.01562 -0.445431
        1.21689 -2.99331 0.808
        0.701641 -0.36912 0.302026
        1.3181 2.49894 -0.111408
        0.628515 0.736434 4.32626
        -2.24012 -2.42153 5.22503
        3.63099 0.621912 0.127489
        -4.75155 0.0933137 -0.653887
        3.35648 0.0169356 -0.534246
        0.677488 4.17605 0.955092
        0.01582 0.906979 1.24133
        2.51946 -0.268648 -4.3821
        -2.05888 3.70609 -1.39572
        4.97076 1.33352 -5.9972
        0.579078 -0.983336 -4.86108
        1.00597 -0.408608 0.621076
        -4.60935 -5.3076 0.129961
        1.79233 4.61917 -0.216903
        0.658505 -0.192201 -2.43642
        -2.96537 -3.50942 -1.32013
        -1.39513 -0.563144 0.724512
        -1.96673 4.54583 0.492447
        1.89184 -0.442604 1.43561
        -1.42385 -1.34222 0.601237
        2.04237 -5.25679 -2.00554
        4.86477 1.51632 0.444808
        0.419265 -0.54523 -1.0687
        -1.36869 1.39609 -1.9339
        2.65965 -3.93297 -2.86105
        4.64637 0.0986419 0.0207046
        -4.6443 -4.17611 -2.36877
        2.15141 -2.23489 1.59985
        1.82893 -3.2807 3.13055
        -0.937701 3.46222 -2.56126
        -2.63244 3.3543 0.133444
        -0.608219 -2.0214 -2.07848
        3.94149 2.86995 0.711732
        0.985079 -2.15803 -3.79954
        -0.794848 -4.11742 -1.02033
        0.288136 -3.8397 1.24135
        -1.36956 -0.642145 2.12914
        -0.128607 0.784615 4.2136
        -0.275407 -4.45689 1.20004
        2.80893 -2.9525 -3.0495
        -1.28855 -2.32396 2.16041
        2.1589 3.28044 -4.278
        -2.65955 -0.764056 3.03368
        1.72054 0.064691 -2.3336
        -5.42808 -0.562725 -2.20591
        -4.33813 -3.80621 0.734574
        -3.10491 1.12759 -0.161978
        3.62605 2.50079 -1.01913
        -1.27621 2.21673 2.50023
        1.1661 -0.716294 -1.4527
        -1.28178 1.19457 0.428314
        -4.11721 -1.92427 -1.62018
        0.681566 3.6422 -3.48368
        -5.00405 0.716017 -2.03275
        -4.85814 5.31598 0.319416
        3.23227 5.13618 1.72057
        2.22587 1.68226 4.00089
        -0.928471 -0.389745 2.40839
        0.096646 0.55886 -4.86791
        4.57107 -1.50995 4.21175
        1.57043 0.172669 1.61918
        -2.61005 -3.62991 0.801439
        4.97426 -0.628604 -2.8057
        -2.932 0.52154 -1.87018
        1.84602 -1.46266 1.55362
        4.79326 3.76626 -0.6842
        0.938555 -2.17556 -0.662705
        -3.03026 2.30931 -0.658474
        8.28482 2.17289 -1.2327
        -3.42074 -0.795843 -4.42322
        1.38423 0.0348843 0.658495
        -1.40125 3.26106 -5.7986
        -1.26187 -2.81364 0.751262
        1.68357 0.58369 -0.785046
        3.16103 2.82754 -3.89972
        2.4952 -1.73319 -2.23797
        -0.145368 -0.184095 3.03828
        1.41961 -2.69925 3.62117
        2.39119 -3.93499 2.25737
        -2.39657 -3.12844 -0.415742
        3.41141 6.97616 -1.53316
        0.608267 1.91002 1.42368
        0.488625 -4.66313 -0.981398
        -1.40133 -5.10198 1.22132
        3.56132 4.29828 -1.13858
        2.47382 -1.15345 -0.189803
        -0.94522 0.737212 -6.72347
        3.74047 -2.18413 2.27681
        4.75223 -3.25025 3.95323
        1.06381 -0.674672 1.02037
        2.38338 -3.83079 1.69462
        1.42322 -0.0991564 1.4765
        1.93172 -1.17955 -4.35446
        -1.07124 0.598216 -1.19643
        -2.03785 -1.33507 2.73444
        -6.74147 1.10635 -0.447707
        2.65445 4.7857 0.792147
        2.70901 -0.254305 0.980459
        2.75922 -1.29332 1.76657
        1.36674 -0.933216 0.975829
        5.27863 -0.98337 0.964177
        7.19364 1.23965 -6.85263
        3.01867 2.25355 0.168222
        -2.458 1.06469 -2.31551
        -1.58966 0.400995 0.191012
        2.05223 -0.921022 -7.36314
        0.939716 0.00802093 -0.477515
        3.64537 1.20099 1.19989
        0.745648 -1.60254 1.98534
        -1.09828 2.62385 2.3558
        -3.72373 -0.613706 -5.17982
        4.96845 2.19283 -1.05208
        4.81655 1.49753 -1.36173
        -3.5042 3.63587 1.65206
        1.55582 -0.839091 3.21453
        0.76925 -1.52223 -0.520767
        1.41914 2.90298 -6.02705
        -0.684492 -1.73631 2.62031
        3.5 -6.0386 1.03966
        0.872497 -1.4134 3.77157
        -1.16566 2.0227 0.701544
        1.13984 -0.496718 0.23886
        -0.261137 0.211648 -3.07358
        0.234491 1.73276 -0.390514
        -1.77713 0.123203 -0.184024
        -2.06616 5.68413 1.84442
        -0.514529 -1.90123 -7.36056
        -5.23388 -0.0307082 -3.92173
        -3.2867 -1.34936 -0.226801
        -0.990913 -2.4985 -1.09658
        -2.97971 2.09478 -4.27286
        -6.83325 3.06648 3.24502
        -1.60169 -0.110553 -2.43013
        -2.92171 -1.23679 2.98673
        4.52346 -4.54189 1.67849
        -0.863647 2.68127 -3.6227
        5.04585 -2.32244 0.680591
        -2.30059 3.65811 -2.0221
        3.90854 -3.58309 0.153039
        2.99476 1.53585 -3.50303
        0.720623 3.36351 0.833394
        0.833666 -0.513894 1.78127
        3.4757 -1.43314 -2.45995
        -1.01227 4.20089 -3.81276
        -6.17064 1.41959 -0.268909
        -1.32735 -0.646134 -0.415678
        -4.1387 -1.20286 0.869502
        0.439056 -0.721687 3.735
        -2.89341 -3.54695 2.13538
        2.83338 -1.18093 1.15084
        -5.15035 -1.73671 1.24784
        -4.1029 1.31043 1.25508
        -0.468924 1.69826 1.30514
        -1.82945 1.19898 2.36871
        2.25907 -0.0443644 -0.502801
        4.34175 -3.54416 1.48174
        0.975421 2.04024 2.17087
        2.73816 -0.519901 -0.656202
        -1.93443 -3.8558 -1.9155
        -2.03681 0.6873 4.59175
        -3.92168 -3.737 -0.886979
        -4.26468 -1.40457 3.65846
        -0.41422 -0.176544 -0.801124
        2.79905 -0.794413 -2.05194
        2.22585 2.97446 0.13664
        0.112059 -4.20261 -0.434865
        -1.18176 -3.1099 4.72821
        3.51064 1.02051 -4.0097
        1.31394 -1.13878 -1.68965
        1.44245 1.26795 3.43761
        4.76806 3.1152 1.88698
        -3.43047 -5.8026 -0.975079
        0.139007 1.95776 0.461427
        2.01206 4.02637 2.54768
        -0.215505 2.80027 1.33268
        -1.44942 -2.4284 0.69075
        3.04965 -1.54062 0.979766
        0.992436 0.640985 0.370352
        0.79379 -0.413814 -2.61283
        2.79021 2.10775 -3.79073
        -0.690768 -0.839749 3.02193
        -1.21093 1.30857 0.290175
        -6.43082 0.403588 -0.753299
        2.62552 -1.01446 -1.31467
        -1.698 -1.7106 -0.316895
        5.56454 5.882 0.864683
        0.853108 0.104278 -1.27538
        -4.17033 -1.77839 -1.24902
        1.36787 -3.02672 0.0382871
        1.47529 3.9499 3.22469
        -0.932585 0.331303 1.01556
        1.3707 1.54554 1.52212
        -1.61371 3.69801 5.67912
        0.353795 0.969151 4.09366
        1.70598 0.366687 0.0769507
        2.6846 -2.02709 -1.5094
        3.70251 0.173847 -3.63227
        1.18912 2.83985 -2.5415
        2.87254 -2.39824 3.1941
        3.08436 -1.58266 3.3013
        0.313687 -7.34385 -2.19021
        3.65748 7.46173 0.390365
        5.66308 -2.00437 4.3298