<?xml version="1.0" encoding="UTF-8" standalone="no" ?>
<VTKFile byte_order="LittleEndian" type="UnstructuredGrid" version="0.1">
  <UnstructuredGrid>
    <Piece NumberOfCells="0" NumberOfPoints="15094">
      <PointData>
        <DataArray Name="velocities" NumberOfComponents="3" format="ascii" type="Float32">
        0.90538 1.26298 -0.289381
        -4.89323 1.95415 -1.29316
        3.70995 2.50867 0.612397
        2.15409 3.7227 6.26619
        3.07771 -0.27727 -0.755798
        -0.92653 -3.8881 -0.0632739
        1.71505 -0.810142 1.24214
        3.32494 1.284 3.75602
        -0.218191 -4.75035 3.58093
        -4.83749 0.359688 -2.07258
        2.82387 -3.81746 5.4523
        -1.72827 3.66256 1.01313
        2.97921 -1.4196 -0.22468
        -0.79692 -0.136549 -2.1659
        -3.39492 -3.12348 2.53618
        3.96074 1.40195 2.35999
        1.35497 -1.54201 1.34909
        -2.59598 2.03227 -0.715359
        0.549326 -1.69186 -6.11131
        4.95911 -0.74512 0.528407
        0.952107 0.401408 1.13621
        -3.0761 5.48804 0.624365
        1.56795 1.87528 -3.96795
        1.4547 -1.34773 0.867448
        1.72706 1.79007 3.77665
        -2.29666 2.56849 -1.15953
        -3.79816 3.84 3.92328
        -0.836028 1.22056 -1.22539
        -1.16155 4.00738 -2.39738
        -1.16295 0.489592 -0.641758
        0.673129 6.87232 -0.617965
        2.25008 -6.82522 1.26815
        1.94946 -4.73083 2.94752
        -1.50853 -2.94366 0.716979
        -1.17458 1.63402 1.21419
        -2.21049 -0.244469 -2.01619
        -1.89942 -0.0394181 -3.67794
        4.28403 -1.40604 -0.831744
        -0.669302 1.90249 -4.99098
        1.29017 0.664683 -4.0276
        -3.5913 -0.771128 -5.20283
        0.851565 -2.09191 -0.767306
        1.18948 2.80666 0.98359
        -4.36538 1.34157 -0.676026
        4.21476 3.32039 -2.14379
        2.19304 0.769421 -0.744551
        1.95079 0.202154 1.07597
        -2.51984 7.84391 1.29021
        6.57906 -4.06412 -1.24432
        0.116122 -1.23784 1.41682
        -2.76394 -3.52349 0.87282
        3.02342 -2.92763 1.4512
        -1.89614 0.133758 -3.10568
        -4.30381 -0.10977 1.37643
        2.02674 -1.48326 -0.97033
        -0.993279 0.140875 -2.11187
        1.7378 -0.933244 -2.8519
        1.13522 0.129559 2.3667
        -1.0683 -1.42997 -0.172333
        -1.19828 0.0110257 -1.57527
        -3.67236 -0.280656 -4.12587
        2.79498 -0.313783 -2.65754
        0.177307 -2.36917 -1.17732
        -2.0697 -6.43644 -1.15669
        3.4191 6.35993 0.731666
        -2.7794 -2.66274 3.68444
        -2.21885 -1.26295 -5.12159
        0.135572 2.06094 -6.11747
        1.1583 0.915891 -0.963409
        3.84106 -1.28382 2.00196
        -2.4351 4.76031 -6.19693
        1.87372 1.61247 -0.851805
        1.11591 -5.23153 -2.65945
        2.22451 5.32474 3.41458
        6.83659 -0.346481 -1.91281
        -4.19135 3.63293 4.33982
        3.06971 -1.07339 0.801704
        -2.01049 1.45226 -2.53125
        3.46156 -2.2677 -1.51002
        0.752458 1.95188 0.766267
        5.69642 7.46567 1.94849
        0.889579 -1.07676 -4.43037
        2.09438 -1.05529 -1.94494
        -0.89565 2.15645 -0.73592
        4.50588 4.52984 2.10739
        2.08372 -0.0614666 -3.64077
        3.01983 -1.27213 -1.56898
        2.70056 2.60771 -2.10214
        -4.93451 1.13406 1.67554
        0.247241 2.34235 0.922221
        -0.806405 -2.21825 -1.83842
        -0.144581 -1.44243 -5.38387
        0.103826 -0.604275 0.217286
        1.58908 0.748782 -2.26674
        2.51426 -1.4416 0.708977
        0.339227 -2.04565 -4.5607
        1.07183 -0.705825 0.918252
        0.696388 3.49029 -0.864303
        0.184934 -1.44512 3.82859
        -0.939105 -1.48743 -3.11609
        2.07985 0.181754 -5.10689
        1.56516 -3.34067 -1.97621
        1.0234 1.76749 0.0733199
        -0.665354 4.31313 -2.25747
        3.74713 1.07521 0.15349
        -1.92371 3.39406 -2.07412
        2.14782 -4.89889 1.43543
        -0.571277 -2.87077 -2.23932
        -2.20463 -0.151906 -1.40628
        3.68909 2.25421 1.754
        5.42607 -2.28932 0.470244
        4.49622 -1.72552 0.299764
        3.71785 1.95864 3.96715
        -1.04408 -5.99852 1.23855
        0.813492 3.23849 0.875888
        -0.655255 1.16207 -5.94961
        2.32816 -0.0625436 3.00055
        2.35795 2.18819 -0.651624
        2.98514 2.73092 -0.790466
        -3.60544 -0.998335 -2.43939
        4.68169 1.30052 1.51868
        -2.2247 -0.573936 1.20132
        5.01605 -0.0620855 2.30802
        2.07589 -3.22934 -1.36921
        -1.79541 -1.53266 -4.02019
        0.963092 2.38569 0.754059
        -0.809147 -0.252851 0.466152
        -0.588765 4.63751 -1.19797
        1.05869 -1.54372 -3.12578
        -3.51974 -3.29899 -4.14626
        -5.98644 -0.186951 -3.36536
        -4.29042 0.415483 2.97685
        0.80189 0.307979 1.21309
        -0.446525 -0.302975 -6.48216
        -0.940509 -0.500399 2.10829
        -2.32142 -3.03406 -1.51091
        0.675429 4.64032 -0.489968
        1.83849 1.57224 0.261857
        -1.50961 -1.27542 -2.7089
        -1.53307 -1.1011 1.51675
        0.660355 -2.96034 -4.09909
        4.53372 -0.77331 -1.99387
        -1.50443 3.8263 -0.361515
        6.63443 -1.52405 0.457211
        0.849365 2.55198 -2.86604
        -0.856465 0.50683 2.97042
        -1.13985 0.65234 -0.28824
        -2.12732 -3.10502 3.97741
        1.26374 -5.00439 -0.120929
        -0.275037 -1.08029 -3.06568
        4.26194 2.2092 -1.91988
        -1.02034 2.00227 -0.190262
        4.34099 0.509846 1.45739
        4.11526 -0.254901 -0.977638
        2.24478 -6.65623 -1.06302
        3.41627 5.10034 -5.44652
        1.69711 -2.78195 -0.670911
        -1.88013 -0.615399 -2.21037
        1.01676 0.536874 -1.12989
        -2.33098 -1.61631 3.13391
        0.676922 -1.64259 1.52959
        -0.0733358 -4.79587 -4.2643
        -0.0699859 1.88348 -4.20345
        1.75568 -5.14498 1.01861
        1.17992 1.25026 -1.03132
        -1.89157 -4.5921 -0.126727
        -1.59534 -3.38566 -0.928277
        3.71845 0.237743 0.984116
        2.54381 2.38727 -1.41038
        1.5748 1.57331 -2.50383
        -1.64884 -0.258067 2.75498
        -0.759892 5.54495 0.601306
        0.939546 -1.97858 1.8775
        2.53336 -1.39832 3.44149
        -0.674224 -2.6581 -1.37985
        1.5211 7.9067 1.7826
        -0.33178 2.96651 0.336679
        3.03307 2.13901 0.837034
        -0.597036 1.19403 -1.2305
        5.46069 -1.79048 0.818629
        2.01277 -0.618683 -3.5613
        -0.754731 -1.92253 -2.31208
        -1.00138 -1.05463 -0.0620933
        -0.965199 -0.982358 -1.65646
        -1.59377 -4.8667 0.504083
        -5.07619 -0.432465 2.65504
        -2.2934 -0.554009 -4.79119
        0.520893 -0.6212 0.947763
        -0.805039 0.301772 -4.11739
        0.620668 0.836465 0.942608
        1.10738 -4.02942 -0.84823
        3.41606 2.72888 6.20739
        3.92605 1.21436 -4.10604
        3.00313 4.716 5.32188
        3.88556 3.35112 -0.190063
        2.45507 3.21309 -2.05729
        1.43817 3.44039 -1.10448
        1.89553 -4.03236 -2.7769
        -0.218243 5.16124 1.79186
        1.3961 0.0616966 -1.02327
        5.10415 -1.18246 -4.50946
        1.34671 0.992356 -0.522901
        -2.16919 -1.67119 2.1304
        -1.97902 0.213053 1.96967
        0.152804 -0.61582 -0.0322203
        4.99565 1.34786 0.171148
        5.64409 3.57622 -6.38163
        0.346702 -0.632157 -3.54078
        1.65729 0.857799 0.498573
        0.408925 -2.18674 4.30579
        1.96998 1.61317 -0.496728
        3.05421 4.60829 -0.142733
        -0.842162 2.34378 -0.9635
        1.09601 2.70836 -1.58103
        5.49754 -5.39894 -2.97179
        0.893704 8.8235 -2.67579
        0.575307 -5.62702 3.29142
        1.67675 -5.36435 0.0349382
        -0.803197 -3.67836 -3.86447
        -3.15117 0.734858 1.99918
        4.4015 -2.99108 2.37815
        -2.31079 -2.02757 0.114183
        2.37639 -0.442841 2.03376
        4.30814 -0.514353 -2.19836
        3.18051 0.267933 3.16721
        -0.300783 -0.515169 -3.681
        2.79074 -3.35372 -1.44556
        1.60372 1.66405 2.56233
        -0.990285 4.43088 1.97823
        2.53207 -0.160129 -0.862728
        5.96304 2.74754 -0.302191
        0.570422 0.320211 -0.201516
        0.839531 4.91067 -2.32634
        2.39903 3.217 3.72215
        0.16122 3.52529 1.44272
        -2.18523 -1.77366 3.15132
        1.58056 5.08139 -0.317314
        -4.72631 3.08837 -0.389889
        4.15108 2.42392 7.44821
        4.02324 1.32862 -3.294
        1.75406 -2.02711 -0.791284
        -1.30376 -0.555173 0.567483
        -0.0112625 4.9749 -1.13409
        1.79935 1.76485 -1.54468
        0.517986 0.642808 -0.813501
        8.52933 1.83679 1.4845
        -1.20122 1.89418 -0.938108
        6.88521 1.51448 1.77485
        0.796445 -0.19475 -1.39813
        1.66613 -1.45417 -6.59267
        -2.72555 2.60939 -0.518948
        -0.364147 0.329398 -0.860379
        -1.5572 -0.360299 0.664372
        -1.17951 0.514218 -0.169845
        2.36994 -0.818323 1.70239
        0.896866 1.11163 1.08657
        -2.4795 -1.19651 -0.343252
        1.53881 4.39044 0.307011
        -0.930585 2.76498 -2.68885
        -1.36566 1.61153 0.000644309
        0.0198362 -3.15993 -1.006
        3.85108 -0.469393 -0.721766
        4.42546 2.83887 -6.73037
        0.746148 0.66707 -0.229518
        0.552445 -1.2155 -3.5942
        0.888131 -2.31045 2.25201
        0.668387 -4.55459 1.5324
        4.29914 1.03473 -0.0899823
        5.19363 -2.35898 1.46326
        -0.287923 1.87784 0.0195769
        0.786281 0.252045 0.162018
        6.73239 0.00159251 -0.201364
        3.85291 3.54182 -1.10133
        9.92537 -1.86022 4.04996
        -3.19745 3.25388 -0.198782
        -2.92069 -0.572628 2.00222
        -1.25061 1.46804 6.30124
        -5.23041 0.0387478 0.23605
        1.36058 -2.61369 5.32279
        4.83764 5.28337 -1.7158
        5.40497 -1.64023 -0.684752
        0.363947 0.506458 1.66151
        5.84602 4.10913 -0.899181
        0.482292 2.05879 1.2942
        -2.01225 -0.0814856 1.88049
        7.44135 1.64102 -0.233014
        -3.47916 2.00815 0.652856
        6.55414 0.139472 -0.508751
        1.98606 -0.809268 -4.36114
        0.53926 -1.17355 3.21157
        -4.81491 -1.10338 -1.08946
        -1.19831 -4.25377 -6.0768
        0.626192 -1.843 -1.88189
        3.28008 2.44313 0.50312
        1.29098 1.20759 -2.1497
        1.21118 2.15817 1.00409
        4.06741 2.51158 -2.66126
        4.32877 3.94508 -2.59795
        0.815962 -0.570276 -1.67557
        3.24615 -3.63518 1.18916
        4.03699 1.96136 0.322672
        -1.47793 0.0126361 1.52676
        -0.960744 -0.849761 -2.59898
        3.05263 -0.112608 -1.12449
        1.54343 1.65872 -0.177164
        -7.68628 3.14519 -3.14111
        3.21419 1.84413 -3.56568
        -3.79086 -7.35125 -1.86472
        -1.00861 -0.910043 -2.44331
        3.68373 -1.24832 -3.18902
        -0.974291 -0.144224 -2.2607
        6.22655 0.657629 -3.91316
        -4.16203 -0.112597 -0.911845
        2.62523 1.8421 -4.28736
        5.45263 2.74119 2.64608
        1.14651 -0.737815 3.91082
        0.546359 -1.74094 -0.135282
        1.03373 -1.25132 1.39679
        0.368479 1.79528 -6.08994
        1.35398 0.29804 -1.20573
        1.68206 4.4111 -0.0234861
        2.44019 -5.56042 -0.203283
        -0.0752451 -7.86264 0.581074
        -2.10186 3.37313 1.35846
        2.33811 -2.65125 -6.25851
        -0.570914 -3.41177 1.83248
        -0.803205 -1.75349 0.535646
        -1.95847 -2.34202 -2.84569
        1.94331 0.275899 -3.68708
        2.64095 -4.7735 2.33499
        1.51224 2.614 -2.05272
        0.0123853 -0.973731 -1.38781
        0.706591 -1.17016 1.07428
        2.17991 -0.660132 -0.103592
        -6.6792 -0.223649 -1.95563
        1.10161 1.85631 -5.00052
        3.55007 1.02447 1.2368
        1.28764 -1.13539 -1.35909
        2.45569 0.787953 0.950184
        -0.37413 5.79489 -3.1973
        0.166693 1.42906 2.10445
        -1.28046 2.52821 -0.126845
        -0.569697 -4.28243 -2.22135
        1.83356 3.9876 -1.28851
        -1.21677 -3.26417 -6.16947
        -1.20633 -1.07205 -3.39609
        3.19697 0.829713 -0.491962
        0.709676 0.584295 1.3095
        1.95256 -2.81494 4.73623
        -1.82915 -4.7293 -3.65061
        3.40112 -3.28058 -2.0047
        3.15947 -0.30002 -0.732643
        -0.257878 0.425674 1.91269
        -0.280362 2.33957 1.60384
        1.56414 -0.618578 -0.194491
        1.1131 -0.346957 -3.25643
        0.28328 -1.20177 4.64945
        -2.85317 0.532369 -3.92756
        5.08363 -3.43993 -0.773855
        2.98969 -2.93592 -4.19263
        4.54981 -2.82552 1.70256
        4.471 -2.0776 -2.16501
        -0.847847 -4.57708 0.777074
        1.25739 -2.49035 -1.19317
        1.19687 -0.170846 -0.0968354
        3.67631 3.58925 1.76791
        0.413952 3.42701 1.99116
        1.80837 4.67576 -1.09452
        -0.634176 -0.359675 2.03535
        1.67303 -3.94105 -0.568373
        3.41541 6.1415 -2.93833
        -1.40263 -5.32592 -2.63686
        -2.912 -2.13155 -1.46505
        -0.134707 1.73581 -1.09627
        -2.03269 -0.777952 1.11353
        -2.30012 -2.01711 1.60659
        0.174696 3.29506 -1.27727
        -0.392541 0.163157 2.81712
        -5.22785 -2.98442 -4.42136
        2.62457 -0.97627 -0.964181
        -1.19454 0.425948 -5.64031
        1.20752 0.506895 -3.04875
        2.15891 2.59761 1.47335
        2.14325 3.23351 1.69282
        0.356187 0.215125 -0.957723
        -0.672836 -0.956539 -2.05141
        2.69554 0.466443 3.70644
        3.60012 0.692544 -0.104852
        1.2414 -0.944698 0.127054
        4.22949 -2.09758 -1.05916
        -1.77086 -2.24125 -0.897693
        -3.48183 3.53641 -3.0286
        -3.35901 -3.95042 -1.22448
        -0.139418 -3.5943 -0.362618
        1.11671 -1.19984 -2.59101
        -0.779108 -0.896216 -2.94971
        -0.220107 0.426881 -4.85139
        0.794214 -1.08951 -0.5198
        1.36482 -1.30518 -0.946645
        -1.86945 0.312626 0.389705
        1.80089 3.07411 5.46737
        1.83323 -0.65856 1.82387
        -1.37339 -2.6433 -0.872161
        2.13602 1.92976 3.89698
        2.45933 0.134017 0.660935
        0.468897 1.87743 -0.528786
        0.456021 2.6451 1.01339
        3.79501 1.18938 -0.398957
        2.3247 1.2884 0.135092
        1.23213 1.24105 2.91472
        0.451613 -2.68495 -0.712285
        3.72939 6.71637 -4.98059
        1.06128 5.21503 -1.86916
        2.92233 6.0999 0.65442
        1.78519 2.16266 -1.75809
        3.84502 -3.47998 -0.0769133
        -1.54719 1.68082 3.18179
        -0.449691 -3.57111 -2.84636
        1.3093 2.43973 0.132778
        -0.467025 2.20396 -3.51275
        0.327308 0.168674 -0.411847
        0.687602 -1.82262 -2.33381
        1.97416 -0.622349 -2.16706
        8.64482 2.17113 1.52888
        0.46207 -2.80436 -1.98471
        0.848005 -2.96304 2.04069
        -0.630267 2.20814 -2.22949
        0.133183 4.51415 1.7076
        3.07484 0.77269 4.02992
        2.5092 -0.245656 -0.897269
        1.04621 -3.26274 3.41896
        1.73008 -1.58744 -2.98907
        1.73126 -3.39596 0.815111
        3.11324 -0.435985 -2.17446
        0.14663 -0.501405 -3.08884
        1.16891 -1.33753 0.305023
        -0.098189 0.427179 2.18385
        -1.29609 1.58351 2.21685
        1.5037 3.30689 -2.2137
        1.72673 2.42373 -1.62587
        -0.701671 0.371117 1.44702
        -4.20789 -2.20712 -0.0750796
        -3.25765 -3.08829 0.0896385
        1.06217 1.64261 -1.18449
        2.62316 3.33263 -4.49871
        -0.642487 2.99936 0.90441
        -1.73943 -0.0318068 0.360015
        -1.55222 -2.91986 -0.917339
        2.10405 -1.59502 -3.16735
        0.290402 0.610795 -3.34101
        -4.10538 5.65021 -6.18185
        0.160369 -2.5449 -2.94168
        0.0595195 -1.79682 -2.68985
        -0.285218 -1.26889 -0.181071
        -0.557191 0.15902 0.187297
        -1.65458 -1.732 -3.99177
        0.233266 0.985561 1.53584
        -1.3348 3.76794 0.371547
        -1.27845 -0.397052 1.80562
        -0.774971 -1.25108 1.04091
        2.26562 2.6012 -2.95142
        -0.890834 -0.00970301 -1.92132
        3.38586 0.0839254 3.12727
        6.13994 -0.777362 -1.3202
        3.02471 -1.42611 -1.41752
        3.06483 -1.82696 -4.1307
        -0.113963 2.71856 -3.26107
        1.01382 -0.267882 -1.80831
        0.821837 -0.351813 3.31259
        0.855285 2.1526 0.6038
        -0.851378 -0.880433 0.327097
        -2.02578 -2.81828 1.9897
        0.748407 3.15773 -1.14321
        -2.54503 -0.0121066 -4.14234
        2.96756 1.87341 -5.18735
        -3.75493 -2.05617 -2.5424
        -1.35261 3.87805 -1.14097
        0.820832 -1.83793 3.04477
        -1.78988 3.28197 7.24118
        2.99909 -3.00634 2.4514
        1.1528 -2.90382 -4.25571
        -1.41626 -3.56886 2.20036
        -1.69557 1.53531 -0.371656
        2.75506 -1.54981 -6.00774
        -4.48351 2.53838 1.36463
        6.1982 5.10042 -0.247614
        2.80171 -2.9365 0.0118069
        1.11043 3.83249 -2.68953
        -2.49534 -1.41758 2.14804
        -3.76873 2.16522 2.73086
        0.255579 -0.913432 -2.62082
        1.24553 -2.16527 0.531915
        -1.59094 -2.16444 -0.912792
        -2.09561 3.72623 -2.99716
        1.71104 -2.96888 -1.93137
        -0.286597 3.57957 -1.32701
        -1.82574 2.25963 -0.93155
        2.0292 4.20458 -3.09383
        2.81169 -0.910185 2.70558
        1.46296 -1.08619 -0.415425
        2.90507 -4.22964 -0.36971
        0.103209 -0.888833 -0.337666
        1.14685 -1.60881 -0.166241
        -3.3222 1.75015 -0.889761
        2.39716 -5.14116 5.55112
        -2.92263 0.974396 -4.57522
        1.86536 0.928404 2.00235
        -2.70791 -0.576361 -0.543683
        -0.110204 -1.77355 -2.26783
        3.17685 0.227153 1.46112
        1.44146 -0.524083 2.01627
        -0.844772 -0.590102 -1.0307
        -2.1795 2.52903 -3.17059
        -0.108944 1.9146 -0.613547
        -1.71257 1.31625 3.66532
        3.692 1.87591 -0.535624
        -0.275991 -2.45411 -2.44685
        2.28915 2.61405 -0.855361
        2.78849 -4.84724 0.335791
        -0.562858 1.04273 3.19781
        3.00511 -4.72799 -2.3957
        0.362332 -2.79686 2.22447
        0.233922 2.51677 -1.61441
        1.76393 -2.36072 0.574398
        -1.07425 -0.604218 3.62982
        1.15909 1.58795 -5.16198
        6.3315 0.962558 -1.98669
        0.00176827 3.01079 -0.821215
        -0.109825 -0.649292 -1.62293
        0.947484 2.58895 -3.5047
        -0.616386 -0.169321 -0.810744
        3.07263 -3.94143 -1.98085
        -0.908575 -0.174248 -0.988059
        -0.782911 1.20871 5.17618
        -1.03516 -0.0389937 3.311
        0.770096 -5.88447 -1.37711
        0.883453 1.15858 1.10887
        1.64688 -0.480202 -4.58202
        0.152011 1.39261 2.43832
        3.42876 -2.28097 -0.870648
        2.00701 -0.619676 -0.133257
        -1.94815 0.369467 3.7052
        0.856048 2.23296 -2.65892
        -1.87382 -0.256832 0.139524
        -1.00028 1.32304 -1.04025
        -0.703146 1.52621 -1.0816
        1.36536 -0.86771 -2.79229
        3.63369 -1.07193 -1.58143
        -0.489545 1.53936 -1.17914
        5.21148 2.07102 -3.37885
        5.36065 -1.85864 -1.83508
        4.24242 2.09049 -0.0647675
        -0.0732214 0.383811 -0.212516
        -1.81074 -2.06836 0.358511
        1.80327 -0.468209 -0.280135
        -2.26912 1.15704 -3.23708
        -1.10866 1.29992 0.0429036
        3.02048 -4.6618 0.765924
        -0.929639 -2.95598 3.00804
        -0.30857 5.61116 -1.03245
        -0.989363 0.551149 -1.13323
        5.18731 1.92302 3.75406
        5.74759 -1.35142 -1.61914
        -2.46531 0.872342 3.72583
        0.289658 -2.06953 -3.95894
        -0.246126 -4.70356 1.6847
        0.554597 3.34749 -7.79786
        -0.653855 3.13807 2.34949
        -2.31487 -1.10714 1.40276
        -2.44109 0.287408 2.95451
        -2.54725 3.61572 1.67289
        0.00396166 -2.31739 -3.43144
        -2.11291 -3.89986 0.986338
        1.37352 0.932421 -6.28545
        6.07366 3.99269 -2.20501
        -1.51017 1.34812 3.08793
        0.966028 -1.90526 -2.25629
        2.64171 1.42589 -3.56869
        0.479083 -2.19743 2.78285
        3.25268 0.867006 1.15063
        1.09425 -1.74422 -2.98671
        -1.34929 1.97996 -3.90996
        -3.52501 3.6377 0.324824
        1.41591 3.5104 5.00365
        2.5859 2.47625 0.506225
        2.60539 -4.6527 1.90306
        -5.94565 3.14239 -1.84112
        -5.37551 -0.226259 2.41389
        4.02439 -0.279469 -0.45691
        -0.823781 -0.66909 -4.81634
        -1.08743 0.242782 1.25418
        0.489471 -1.5651 1.68355
        2.07157 1.97706 -1.20027
        6.6243 1.64717 -1.7665
        1.97177 5.54723 2.93214
        2.40097 -1.86195 -0.964715
        5.29553 1.51684 -3.88544
        1.37584 -2.14268 2.74449
        -3.82209 -0.952208 1.30562
        3.1947 0.571565 2.18144
        1.03712 2.7098 3.0073
        2.45005 -6.25226 -2.14065
        1.66204 -2.63437 -4.34112
        -1.55098 -2.02336 1.52325
        0.515689 4.21735 3.8799
        -0.457996 -0.273705 2.15511
        0.487517 0.715339 -0.623954
        2.50388 -0.658189 1.56626
        2.0389 0.22367 0.946105
        6.39845 -2.48223 0.609837
        1.51794 6.17246 2.14436
        3.7423 -3.72265 0.390366
        -4.11858 -1.02763 -3.16784
        -0.933924 0.230344 -0.262823
        1.64639 2.29991 0.0231398
        0.552883 4.67318 0.663538
        0.559212 0.271999 1.71241
        1.69515 0.748393 -0.789061
        -1.84964 -0.327791 0.439256
        2.51904 -3.84256 -4.15457
        2.68332 2.13616 0.979987
        1.37709 3.0425 -2.90862
        2.07193 -0.916581 0.346634
        3.81694 0.62181 0.359222
        3.00768 -0.872044 3.07238
        0.879566 4.00882 -0.0438778
        1.31328 -1.05407 1.71166
        2.81093 -3.39705 2.32024
        5.20049 1.19482 1.92699
        -2.25435 -4.20833 0.973655
        0.55661 0.19556 0.121182
        -0.302979 -2.36298 5.11169
        2.37569 0.463051 4.66016
        2.33484 -1.42323 -2.59004
        2.39728 -0.315772 1.10683
        -1.87676 -1.00206 -1.97536
        0.758155 3.13653 4.17713
        0.571343 -0.174274 3.21497
        -0.818272 0.110915 -1.16778
        -0.874552 1.70283 0.152383
        0.479472 0.606933 2.78835
        2.58085 -0.825317 -2.5152
        -4.26909 3.75932 1.00707
        1.76835 -1.64812 -3.43595
        2.39964 0.877661 0.186135
        2.2214 0.525645 -2.09502
        1.49501 2.99533 2.49973
        -0.0632252 2.64187 -0.268063
        2.70027 4.66022 -4.23004
        3.2039 1.37629 -4.09469
        3.82499 2.02122 1.39572
        3.88462 -0.797111 1.32048
        2.42675 0.152457 5.27198
        -1.76904 -1.4636 0.274503
        2.24734 -3.5784 -0.0616576
        -3.07224 -0.126981 0.775292
        -0.358991 7.4592 1.35911
        -2.98907 -2.22495 2.66158
        -1.12914 -5.02136 -1.43129
        0.549174 -1.3672 -0.607338
        2.60151 -4.23956 -2.1511
        1.35964 1.02657 0.181432
        3.4293 -0.244864 -2.83005
        4.23964 -0.898754 -2.11489
        -3.00829 -0.0621966 0.329409
        1.93794 -5.13537 1.99706
        0.187358 -3.63334 -1.03558
        -2.44399 0.470842 1.40839
        2.25478 -0.255644 -1.47557
        0.196124 -0.224557 0.200212
        1.40964 -2.19287 0.333889
        5.67257 -0.0734408 -5.09406
        3.0623 -0.360733 1.91145
        3.9914 -1.05786 -0.293452
        4.08492 -0.623127 -5.07474
        2.09597 -0.620629 1.62326
        0.236433 -0.125946 -1.5054
        -3.2293 -1.41487 -1.9123
        1.03697 -1.16655 -2.94927
        0.118535 -2.90841 0.586371
        -0.120875 1.23406 0.903356
        2.71935 -0.791873 1.9507
        -0.661346 -3.70733 -2.26554
        1.92249 0.757433 0.797482
        -3.44529 2.219 -0.607271
        2.12374 -0.779532 1.9259
        0.471994 1.18853 -0.260347
        -0.173765 -4.37222 3.51085
        3.44306 0.973361 0.710394
        -0.659239 5.68625 -1.92452
        -1.94776 2.27705 -3.13078
        0.153596 -0.399207 -3.0207
        2.4234 -1.25877 2.23747
        -0.572889 -1.35911 -2.35032
        0.96885 -1.11631 -3.26768
        0.0665381 -1.15848 1.911
        2.32961 1.32782 0.649831
        -0.110819 0.0293106 0.581722
        2.83712 -2.22411 0.708107
        -0.623848 -3.79814 -3.61877
        1.9294 0.488111 -0.847458
        -0.174035 -3.30647 0.439866
        -1.32813 2.39643 3.01227
        2.3589 1.1635 2.06296
        1.17679 5.41711 -1.52976
        2.04819 0.22286 -2.07626
        -1.61238 -1.68242 -0.452319
        -5.34181 2.97438 -5.96276
        3.24703 2.34202 2.01586
        2.93947 0.362002 2.02953
        -3.42053 -2.39647 3.21451
        -0.111447 -1.02471 -3.2706
        0.123879 -0.401728 0.300887
        0.517734 -0.219196 -4.49896
        4.2213 -0.00410234 1.47341
        1.34029 -2.11317 -2.2417
        1.44799 5.04438 0.619258
        0.948618 -1.53 3.36053
        1.12873 -1.05889 1.85937
        -1.20478 -1.85257 -0.916293
        -1.96149 0.359245 0.998487
        -2.6753 -2.7004 2.79104
        0.0250174 -0.611266 0.335889
        -0.341853 1.79233 2.02457
        -1.17787 0.972871 0.0345459
        3.00069 1.78809 2.65387
        -3.02308 3.69556 5.16079
        -2.68291 -4.30715 2.38665
        2.27075 -3.02377 2.68429
        3.64654 -2.16676 -4.06775
        1.80704 3.8398 -0.304132
        2.40688 2.79494 -5.08424
        2.2566 0.525828 -1.18437
        0.0519474 2.6824 -1.5791
        2.44959 -1.84852 -1.86682
        6.12778 1.95387 1.3717
        -1.01963 -0.399061 4.29426
        0.921684 -0.686643 4.16947
        -0.715542 0.176069 -3.68037
        2.00142 -0.272397 -1.93514
        1.90605 2.05896 1.13756
        -0.432561 0.0554761 -2.11705
        -2.50924 4.63188 -3.01669
        -3.05726 -1.17426 -2.58786
        2.41983 -2.27327 -0.0911765
        1.61448 -1.37722 -0.936721
        3.62185 0.801577 -0.111761
        2.4626 1.34962 -0.789461
        3.44726 0.20266 1.65711
        -1.50085 -2.85963 -1.12227
        0.250389 2.53245 -3.93118
        -3.9497 3.72185 -0.822837
        0.0686556 -0.400569 -0.0490173
        -3.72987 -0.743901 2.16207
        0.753783 3.98408 -2.14882
        0.896802 -1.96973 2.57646
        -0.439469 2.19989 -3.02282
        0.612221 4.71197 0.0510067
        2.00415 5.70475 -0.109417
        -1.74038 -0.113595 2.13516
        3.52973 -3.57146 -0.226641
        4.516 1.62001 0.216234
        1.18547 1.10245 0.411221
        0.00552506 -2.50901 0.933152
        0.986572 1.8539 0.673146
        -0.242993 0.607596 -1.27798
        1.96755 -0.1066 -0.326288
        3.29745 -0.589301 2.50051
        1.01052 8.06103 2.4889
        0.931813 0.0916007 -5.30229
        2.58387 6.40259 3.3349
        4.22433 -4.07595 -3.35056
        1.10276 -1.9632 -2.39568
        3.22925 -3.611 -1.48568
        -2.59075 -0.447299 -4.42371
        -0.355905 -0.786443 1.49917
        2.32021 -1.48047 -0.170522
        4.25323 -0.813659 -1.79142
        1.44736 1.27992 -3.22077
        2.68476 -0.880857 2.896
        -5.12285 3.86247 1.09784
        -0.572563 4.91657 -3.06879
        -4.35215 4.24645 -0.152074
        -0.903673 1.27644 1.68665
        1.38928 3.43136 2.01975
        1.1736 0.47038 2.56415
        5.24682 3.15331 -4.26309
        1.16487 1.09886 4.59988
        0.800195 4.37922 -0.198736
        5.89371 0.812162 1.33572
        -1.05024 -2.9008 -1.57266
        -3.34422 -5.21282 -2.22727
        1.92327 -1.10138 5.90528
        2.3801 0.424775 -3.0514
        6.48953 0.761731 -0.971806
        -2.45968 -4.08686 -2.71952
        2.38514 0.665551 -2.44996
        -3.68537 3.43984 4.39767
        4.72275 -0.132704 0.282553
        -2.42862 -0.0346155 -3.72473
        4.04117 -0.330211 -0.835877
        2.86873 1.60879 -0.983433
        2.36819 -4.17073 3.49079
        -1.42535 0.115873 0.998847
        2.66627 -1.74955 -0.039357
        1.37853 -4.70099 1.8124
        1.22486 -1.12375 1.81484
        -1.54579 -2.64728 1.01876
        0.209607 1.94978 0.684148
        -4.49261 -0.680412 -1.42478
        1.47058 4.61282 0.199409
        -2.48083 1.69742 -2.46918
        5.41804 -0.927333 -0.823352
        3.47738 1.02987 -0.837831
        4.0128 -1.21138 -2.20249
        1.10665 2.11072 -0.662035
        2.81911 -2.53451 1.16209
        -2.10711 2.44338 -1.9984
        -5.04947 0.753899 1.57007
        -3.56565 -6.40228 -0.471039
        0.539003 -4.45313 -2.22906
        3.12692 -1.85145 -0.557745
        0.103692 0.777128 1.17462
        7.07184 -1.2985 0.253616
        1.61018 0.755319 1.08784
        1.91714 3.26833 0.934578
        3.18047 3.10699 1.0569
        2.55885 -6.64856 3.96353
        3.50453 0.127977 -1.17744
        0.135547 8.82824 -0.882082
        1.60567 -2.1369 -2.42443
        -1.3118 3.92971 -0.0162893
        1.95802 -2.50117 3.34236
        -1.12232 -1.86209 -4.44932
        -4.43046 -1.11094 -4.41475
        -3.20747 10.5772 -6.8834
        -4.99258 -4.98834 0.0763508
        4.13906 -0.538101 2.3224
        2.71543 3.46679 -5.62131
        4.1538 -1.42507 -3.38112
        0.506111 -2.89941 -4.04652
        -1.35552 -0.898195 1.79456
        -1.07054 -0.432537 0.483541
        -1.42399 2.63816 3.36597
        4.50262 1.37928 0.061609
        -5.66685 -0.349529 -0.640909
        6.2785 0.323141 2.02374
        1.18362 -2.75871 2.62711
        -0.185639 -5.55326 3.98015
        -0.208379 -4.07162 1.26345
        3.63219 -0.684028 3.9298
        0.114996 0.829722 0.429239
        0.0210783 1.48119 5.51203
        -0.891166 1.19739 -1.15735
        3.0163 -3.13058 -4.92438
        -3.7528 -0.403229 -2.62423
        -5.33535 0.731881 3.12627
        -2.91086 -3.73644 -7.26065
        -0.178926 -1.58192 0.347425
        -0.308281 -1.70189 -2.31278
        5.69664 -1.41721 -5.73704
        -1.4928 2.2767 3.69962
        -2.19357 1.60947 3.81482
        0.399047 3.82281 1.83321
        5.65327 -2.26485 4.22995
        0.514822 0.572657 -1.58162
        3.20851 -1.05029 0.566476
        4.0265 4.57194 0.0988533
        -3.86787 -3.02755 0.691073
        -0.69315 1.85105 1.10083