<?xml version="1.0" encoding="UTF-8" standalone="no" ?>
<VTKFile byte_order="LittleEndian" type="UnstructuredGrid" version="0.1">
  <UnstructuredGrid>
    <Piece NumberOfCells="0" NumberOfPoints="15094">
      <PointData>
        <DataArray Name="velocities" NumberOfComponents="3" format="ascii" type="Float32">
        2.60458 0.749061 4.91014
        -0.322633 -0.262032 -0.97763
        0.640646 -2.215 -1.97782
        1.16847 -4.97974 1.60307
        0.793181 -2.33397 4.11232
        2.26273 -6.60614 -1.43996
        -1.45647 -1.5573 6.54593
        2.35014 -2.71091 -2.68734
        10.3791 4.14963 0.148166
        -3.15148 4.4699 -0.210293
        3.53384 -3.92578 -1.79538
        -1.95856 3.66568 0.781424
        -4.01976 2.25699 -3.24663
        3.25863 -1.14949 -3.12333
        4.43264 -0.250762 -3.27901
        0.500567 -0.336268 5.12611
        1.93167 -0.738908 -12.1299
        1.40117 -5.98962 2.96263
        -4.27999 -4.04352 0.306251
        6.29763 -0.514655 3.45723
        2.40765 2.92904 2.45693
        0.8021 -1.46574 -2.89222
        0.13206 2.04737 -4.82156
        3.64602 6.79181 6.09007
        7.20438 3.36979 2.65761
        -2.96707 2.69384 -3.14913
        3.91803 1.83524 0.180315
        -5.19593 -3.23604 0.971953
        1.31537 -1.48747 -5.33666
        5.9449 3.46928 1.21523
        -0.510353 -2.32252 -3.62316
        1.04204 1.84499 -1.44822
        -1.69008 0.477654 0.593763
        5.39512 -1.79122 2.39851
        -10.42 2.46015 3.68431
        8.00316 -1.53516 0.796883
        2.7104 -1.67752 -1.58812
        2.21046 -0.20711 -6.69598
        1.6805 -2.08672 -4.59488
        0.298387 -0.644125 -2.83337
        -6.65476 3.00295 -3.85442
        -1.01022 3.36995 -1.17719
        0.110807 -3.06592 -4.29912
        2.74561 2.87488 4.34745
        3.21858 5.69865 4.35571
        -4.53118 -0.80758 -5.09199
        -0.464107 2.07215 2.48098
        -0.22838 -0.394591 -0.195359
        1.8564 -5.61705 -1.0115
        2.90946 -3.74065 0.149264
        4.56201 -0.43906 -0.993538
        -2.21233 0.687068 2.10864
        -0.807321 0.322543 1.4024
        -0.551995 -2.61774 2.66232
        -1.04633 -3.21922 2.00457
        -0.277444 -5.57371 -0.859579
        -3.93223 -1.67807 -0.987925
        0.169627 -3.92548 -3.52346
        6.31169 3.51439 0.214479
        -4.99651 1.47458 -0.284839
        -0.946482 4.10596 4.69237
        0.147696 3.07903 -2.1743
        -1.17045 1.09961 -1.39881
        9.55738 -2.79326 1.3392
        -0.231902 -5.79251 3.06744
        -1.3651 -2.2528 5.52734
        -4.58888 0.635214 -1.30907
        -3.16554 3.07638 -4.94697
        -3.20878 -3.08427 -1.177
        3.40569 0.245794 0.865257
        5.10185 -0.49193 -0.513308
        1.95799 0.368789 -1.66334
        -6.54239 -0.539172 -6.98121
        0.219663 2.31686 6.94782
        -1.39058 6.30485 -6.53808
        6.43193 0.936522 -2.79816
        -0.994442 8.02285 -9.28539
        2.7086 -1.41568 1.92724
        -2.76605 3.51361 7.34994
        3.56745 3.66337 -7.35667
        -0.310546 -2.85491 -4.61288
        -2.16191 -4.76118 -3.14392
        0.367739 -2.49656 -3.22078
        5.55338 -2.43579 2.56627
        0.637144 -4.86082 1.56533
        1.31796 -3.73351 -1.09703
        -0.586575 -0.262722 0.912041
        7.34328 1.25484 -3.01602
        2.87116 3.66305 6.07243
        -1.33971 1.42125 0.490515
        3.23819 4.60959 -2.97824
        1.74903 -3.24681 3.59494
        3.25107 -0.832598 2.18121
        0.615403 1.61519 -2.00056
        2.74687 -4.49038 10.354
        4.61145 -2.48029 0.737734
        -0.492194 -1.83969 3.64174
        -2.06343 3.05764 0.222629
        5.79582 -3.31105 -2.21063
        0.946807 -3.52455 -6.73611
        3.59268 4.74297 1.76469
        5.24512 2.59653 -0.525788
        3.28494 3.92373 1.42371
        -2.99074 -0.94189 -3.17949
        8.04578 -1.65482 -2.37731
        3.87598 1.53831 -6.06688
        -3.72738 -2.13897 1.21563
        0.229754 1.28469 0.434531
        -5.2767 9.63642 2.3827
        -0.51657 -0.95063 -2.02814
        1.57596 6.43567 2.28166
        0.278118 2.89523 0.755863
        -0.308559 -3.6762 -2.46989
        -0.54905 4.04855 -2.97684
        -0.844924 -5.44018 -1.04767
        6.21115 2.4594 3.58552
        -0.269082 0.51532 3.21777
        -1.66462 8.84039 -2.94175
        -2.72884 0.128975 -1.83944
        1.53446 -2.53847 -0.23243
        -7.39243 3.9665 -5.86218
        3.96393 -0.944012 0.128208
        2.9759 -0.829277 -1.34899
        -0.210213 1.14744 -0.537841
        4.20367 -1.86304 -1.73972
        2.45589 1.66304 -2.40983
        1.42061 4.46245 -5.26323
        3.46236 -1.09927 4.18486
        6.07122 -6.56283 -1.03725
        1.37949 -0.918335 -0.0928945
        -0.78707 -1.3127 -0.904699
        -8.91652 6.49414 -2.65877
        -1.12559 1.79705 0.190507
        5.22365 0.133579 -1.35178
        4.06124 -6.51035 -2.66707
        1.19033 6.3438 -5.46219
        3.46661 -0.342595 0.762022
        2.38913 2.58176 1.82429
        2.63286 -0.753 1.34029
        -1.09865 -1.19904 -0.0982153
        -1.0579 -4.33482 -1.66448
        -2.89304 -3.11423 -0.915368
        -0.755842 0.8334 1.81215
        0.38559 0.00983595 4.23488
        -1.73199 5.32573 -0.558482
        2.42297 -1.65079 -4.61872
        -0.532286 -0.0884129 2.3758
        3.68364 4.96454 0.868411
        -0.817143 -3.01706 -0.769869
        3.82838 1.52946 2.02886
        5.42261 -2.09803 -3.8214
        3.55352 -3.0473 1.49178
        -0.757792 3.45177 0.640312
        1.65219 1.15786 -1.70062
        3.98183 -1.44354 3.12499
        3.68826 0.225587 -0.161453
        2.11455 -0.0797472 0.5471
        5.33335 1.7925 0.184068
        -1.69098 0.378768 0.94355
        -0.337728 -3.98905 -2.35869
        -0.610303 0.265612 -5.27654
        1.72272 -1.51455 3.2747
        3.14424 -3.73334 6.44653
        -5.31656 -4.7321 -5.00573
        -0.467455 0.225829 2.34648
        -5.93026 2.4937 -2.02068
        2.24514 3.56183 8.70117
        3.83307 -2.58537 2.87839
        -2.55034 1.9566 2.79178
        -0.817768 -4.14373 6.43772
        2.81113 -0.813768 -0.588529
        5.70393 1.84086 5.36682
        4.43243 0.336797 -0.425357
        -0.726686 -3.32537 -0.273853
        0.946139 2.17741 6.08434
        -4.23107 -1.42746 -1.30108
        0.304481 2.10503 -7.02851
        3.42587 -0.0591866 4.01154
        -1.82537 -1.395 -0.0673231
        1.15624 -1.30749 2.68758
        2.26895 -3.20049 -1.90746
        5.39238 2.6432 3.42099
        -0.50706 -3.78892 -1.71919
        3.20965 0.140471 -5.25672
        2.49756 2.89439 -4.83234
        -0.31181 -3.38263 -3.29466
        2.02718 0.315366 0.304361
        3.23953 0.36854 -1.82295
        -1.36027 -0.275552 -2.50054
        -3.43916 -1.53597 -0.792099
        2.41491 4.7736 -0.551414
        4.35892 4.59511 0.0623166
        2.65925 -3.23628 0.0185041
        2.61005 0.782261 -0.796344
        2.17664 -1.4653 0.363275
        4.616 1.92067 2.62728
        4.01277 -4.58177 2.02887
        1.32243 -2.18482 -0.959462
        0.733497 -0.449725 1.20477
        4.44778 2.41682 -5.75122
        -1.15972 -0.153712 1.03797
        2.51167 -2.73181 -4.59505
        0.556015 2.25243 2.18292
        1.62626 -2.49954 4.28803
        -2.60589 1.47045 1.49331
        -1.32501 -0.616625 -4.49116
        0.122862 -3.2036 -0.0180236
        0.309558 1.44019 1.65843
        -0.828491 -1.17501 1.24791
        -0.904379 3.25067 -7.25912
        0.37279 1.76179 4.89752
        2.10887 -4.5517 0.485454
        -2.98236 -0.531283 1.35367
        3.02024 -0.246385 -1.53401
        3.65863 -4.7519 -1.40264
        0.75263 1.04747 1.63851
        0.230951 5.64985 2.74161
        -0.796792 0.760585 -1.6376
        -2.16571 0.918325 -4.28859
        5.97091 5.11307 -1.0971
        -2.71756 3.39161 -4.9517
        -1.71126 2.39919 4.51653
        -7.50187 0.323941 0.906858
        2.99659 3.64728 -0.453117
        3.71356 -2.60885 3.89777
        3.31074 -0.924433 7.42265
        0.99661 -6.73336 -3.75107
        2.4093 -5.03695 -0.348102
        1.6233 -1.37801 -1.40924
        5.26356 2.74232 0.0710271
        -6.85916 1.96052 3.5917
        -3.00041 -3.51598 -6.9728
        -4.15823 0.194211 -3.45562
        -2.98024 3.72105 -9.69026
        1.61769 6.30916 1.00337
        3.78715 -2.49827 -2.13184
        8.45219 3.02314 3.9433
        0.455303 -3.01228 -5.03551
        6.72013 -0.845937 -4.55556
        -1.1462 5.01536 -0.12479
        1.6625 3.7021 1.60315
        6.10814 1.53186 -3.34874
        1.7739 -4.32827 -0.131673
        1.53967 -3.894 -1.24303
        -3.92476 1.05102 1.93456
        2.31772 0.14522 -3.55568
        3.39927 -4.62618 -4.0924
        4.27047 -0.409515 -4.99428
        1.9168 -2.073 -1.57775
        6.33967 2.43782 3.70461
        1.10829 -0.166996 1.41858
        1.9962 -2.70651 -1.61352
        5.60579 -0.634472 1.27895
        -0.40125 0.889138 2.95709
        -1.25553 4.16697 4.11376
        -3.48341 3.17151 -0.254764
        0.180961 3.65124 -1.57855
        0.167998 0.20766 -1.00278
        -3.00053 1.70227 1.68107
        4.80105 1.04601 1.05262
        3.81942 -1.56167 -0.791387
        0.458204 -0.254567 2.00839
        -2.73573 -4.64215 -1.95636
        4.70555 -1.73775 0.649322
        2.7635 -8.09864 3.85916
        -1.50521 1.58476 -0.27802
        -0.667909 3.11011 1.72716
        -0.816559 -2.73024 -3.1601
        -1.95482 2.68023 -3.81206
        -0.593662 2.85261 1.72772
        -0.90482 -0.387445 2.68761
        -0.775247 0.546631 2.67175
        -1.24472 4.99386 1.90737
        2.33695 1.30616 4.25013
        -5.14146 0.950166 0.651824
        5.88928 0.463433 0.0226449
        2.55077 0.445901 3.54098
        1.24453 2.39215 -3.56458
        -1.26626 -2.24828 2.19923
        5.07917 3.99614 0.600376
        3.53502 0.209351 2.84615
        1.08054 1.6575 -0.222203
        -0.428457 0.00417703 -2.09454
        4.99522 -0.734052 -1.50226
        4.19839 1.03837 -0.46745
        5.37211 4.11446 -2.03449
        0.842743 0.154782 6.97868
        3.52207 -0.327361 1.35584
        3.37551 -0.759422 -2.05671
        3.83109 1.20481 3.65662
        2.20108 2.89282 2.37327
        2.78171 0.853862 -0.114365
        -1.26307 3.60266 -0.732779
        -2.0202 -4.6356 -4.77109
        4.09016 4.0898 -2.96944
        -2.35868 -2.15949 2.79653
        -3.07406 -0.665685 -3.81124
        2.87941 1.31248 1.08985
        4.60857 -3.75445 -2.67566
        2.17417 2.30461 -3.89965
        -2.07436 -6.14438 -1.69572
        -3.23872 -0.709742 -2.94926
        0.287598 -1.88159 2.84929
        -1.86416 -3.71072 3.36236
        -1.35017 -6.16126 -7.29126
        -4.12489 -7.70203 6.29447
        1.96027 -1.03989 -0.768286
        -1.74233 -0.218573 1.12917
        -1.3791 -0.471036 -1.05655
        1.95449 1.98759 1.33121
        5.62006 2.05014 1.12167
        2.88259 -1.19089 5.54438
        2.68934 -3.86738 2.58631
        -1.72791 -1.74724 -4.54689
        5.24685 4.9855 6.00063
        5.46817 1.64821 -2.18695
        -0.506054 -3.43838 -1.95656
        1.04258 1.45723 0.703905
        4.80092 1.68501 3.0045
        -0.142933 -1.90468 7.10858
        0.594032 -1.80943 2.59022
        4.40924 0.252549 2.96245
        -1.85523 -1.87459 -3.68965
        0.737042 -0.294726 -1.63644
        -1.43191 2.6463 -3.022
        -0.74655 -0.993078 0.575075
        -0.579286 1.95782 -2.7592
        5.6252 6.33387 4.4059
        6.46589 -3.42614 0.925336
        1.51575 2.65809 4.74517
        -3.60686 5.35066 -3.68172
        3.45632 0.0864329 -0.365339
        6.58203 4.42267 2.19226
        3.57843 0.766431 8.49253
        0.892346 1.82035 -1.86387
        3.37081 2.03056 -3.22433
        4.26653 -0.756981 -2.54106
        -3.04037 -3.55905 0.806395
        3.35139 -3.62714 -3.85167
        -1.32915 2.06856 -1.89945
        -2.34508 -4.42119 -0.832796
        0.406111 -1.76696 1.32597
        -0.336686 0.798093 0.665592
        4.61807 -0.701195 5.98193
        -1.37522 2.60285 0.611159
        2.40582 -2.37206 -2.7438
        7.24147 5.09551 -1.41312
        3.37457 -0.650726 -0.0336711
        1.7421 -3.93826 4.17007
        1.35429 0.669926 2.8032
        0.215205 -2.51647 -2.27131
        1.73598 -0.888874 0.575326
        0.708594 0.801372 -2.19618
        -2.26371 -2.71013 -1.75585
        -3.46143 2.43521 2.13907
        0.489906 3.17107 2.20427
        -3.20478 1.71916 4.85652
        1.01112 2.43898 -0.896131
        -1.12864 2.25621 2.06584
        -3.29805 1.3646 -0.637513
        0.82912 2.88844 -1.2981
        -1.03994 5.20092 -2.43804
        3.033 3.37206 -1.87263
        -3.88412 -0.87264 1.14791
        0.286147 0.331192 -0.0553559
        -2.40113 1.71647 0.682872
        0.145968 0.25029 4.2391
        -5.1035 5.76725 2.64593
        0.066139 -4.58443 -3.43925
        0.377326 -2.07957 4.59128
        0.316473 3.49101 -4.58796
        -0.593437 -6.86086 -0.187814
        -1.09342 -4.69687 -2.47333
        5.14495 -2.3533 -2.37634
        1.55578 -4.16426 -0.148541
        4.64294 3.23942 3.79284
        1.7801 -0.410611 -2.82198
        0.677127 -4.66563 -2.4916
        5.47625 -2.32316 -0.765024
        0.284357 6.3885 1.19736
        1.95703 -0.858574 3.59121
        1.53031 -2.93365 -1.86246
        7.48009 -0.799239 5.95348
        0.772037 5.6564 0.134442
        0.348691 1.33812 -2.48083
        1.60108 4.81078 -0.557766
        -0.927208 0.0261929 5.50092
        4.3518 -1.73199 1.86232
        4.90792 2.06988 -3.95779
        1.17183 -1.75169 -1.7276
        -0.866987 2.66853 -1.10077
        0.616272 0.407581 -3.72415
        4.44731 0.260673 -2.50722
        1.60687 0.10926 -4.34342
        1.25557 -0.433476 1.98668
        -0.599499 -0.298485 4.40182
        1.74327 2.67678 -1.48418
        2.33199 -0.60561 3.48964
        1.06581 1.74273 -2.72396
        2.23465 -0.32086 0.728019
        3.54912 6.02882 -8.44551
        4.19691 0.733689 6.53832
        4.26389 2.52963 -0.724511
        -3.42063 -1.92805 0.395433
        -3.28619 0.920655 -5.72105
        -0.965927 2.83068 7.51807
        0.417876 0.26744 0.878734
        6.82463 -5.31154 -5.29392
        -0.999819 -2.46052 4.68045
        2.55316 -2.76395 1.6368
        -5.65042 2.94595 -2.28271
        5.922 -7.32188 -1.95782
        2.0777 -5.25818 -1.14736
        -2.07347 -4.77389 -1.99141
        7.76527 3.1336 -0.518523
        -1.89678 0.147115 -1.28681
        -3.15287 -2.83825 -0.629383
        -2.2361 -2.24837 3.19963
        3.10029 -0.676488 1.92152
        5.69631 0.00659403 -5.23552
        -2.62702 -2.73967 5.17268
        -4.82597 1.39087 -4.96109
        -2.73631 -2.9755 2.24932
        3.74005 2.58744 4.31268
        0.151841 0.300024 -1.90292
        0.458688 -4.78665 -3.22675
        -0.494232 1.03326 0.358345
        1.28191 1.21161 3.45782
        1.05596 1.88944 2.12607
        1.25257 2.23224 0.938697
        3.6266 -2.52639 -6.78617
        -1.7544 11.4768 4.01453
        3.67655 -3.285 1.97991
        1.43484 -3.96701 0.549751
        0.798809 -7.07655 0.939401
        -1.68588 0.331544 0.6588
        3.19507 2.98642 4.94578
        -10.0433 1.4312 -0.347086
        0.583063 1.74542 -4.54191
        -0.670537 -5.01937 -2.19001
        -0.353083 1.80914 6.10628
        0.981816 2.89867 4.90093
        3.3604 0.729751 0.230976
        0.601635 -0.370568 3.7324
        1.06731 2.92621 -0.690225
        0.969915 2.85474 -1.7191
        -0.154291 1.90565 -3.83906
        -0.107926 6.04843 2.11613
        4.66933 4.05795 1.87749
        3.55832 2.50296 3.26391
        -2.13656 -1.09509 3.99005
        2.59805 -3.9377 -3.52624
        -0.268507 -3.05838 2.47291
        1.0573 1.37625 2.56705
        -4.22083 -0.149543 -4.14739
        2.68422 5.33542 -0.85121
        -2.10735 7.46898 -2.01419
        0.333735 1.82888 -0.469509
        3.91585 -0.431572 -6.86149
        -0.836319 -5.12626 -1.32445
        -6.11345 3.29245 0.94735
        7.28142 2.60352 -1.64293
        2.7479 1.68422 1.77802
        0.396468 -3.05678 -1.51685
        4.27354 0.225833 -0.725954
        2.41739 0.546763 1.79507
        -0.58156 0.29626 2.40684
        -0.956534 1.14417 1.98413
        2.32131 -1.04922 -2.71328
        -2.75011 0.399385 0.438278
        -3.3876 3.17465 6.00651
        -0.447008 0.976361 0.290935
        -1.47095 3.42864 0.0743627
        3.33384 -1.88749 -2.63431
        -0.426435 -3.71963 6.87516
        1.86763 0.481646 -1.44001
        3.21595 0.791449 -1.15517
        4.25263 -2.27376 -0.150312
        -1.03336 -0.492664 -4.03332
        -6.19387 3.37988 3.9468
        3.80111 -0.851193 3.176
        1.15739 3.47552 6.8978
        0.4919 3.26481 -0.223992
        -3.39645 -4.69911 0.0689941
        4.96013 -1.02501 1.37726
        0.666451 -2.90838 -2.52322
        5.56413 -2.1241 2.90221
        4.8668 0.650569 -1.91829
        -2.28147 -1.00429 -1.76828
        2.22947 1.81 1.67199
        -0.252231 8.10912 -3.27969
        -3.14821 -1.74336 -1.01179
        1.32209 -2.92171 -5.27894
        -5.8196 -4.28989 -0.749771
        0.62197 2.99985 -2.91446
        3.6888 3.06615 -8.35916
        2.9131 3.72973 -2.88134
        6.87665 -3.67468 2.92213
        -0.90685 -0.68582 0.214176
        -0.861119 -4.33432 -4.29974
        -3.02614 -5.69177 -0.168847
        -1.44949 3.98276 3.38853
        -5.30026 -1.58387 4.0179
        -0.912019 -3.2389 -1.80819
        -4.99354 7.18821 0.634753
        0.697318 -3.59305 -7.25445
        4.70625 0.902057 -1.61693
        2.08017 1.12544 0.445679
        1.40399 -0.678349 4.93946
        3.66119 -4.0374 -4.55523
        -1.17812 -1.92964 2.88194
        -3.28969 -0.972294 -1.4635
        -2.31553 -2.17399 3.49031
        -0.903351 -1.28139 4.05822
        0.613851 4.63215 6.35889
        0.195111 2.92378 0.742453
        -3.90436 3.28381 -3.23829
        0.906548 -1.05471 -2.22181
        -1.05588 5.34713 -0.110457
        -0.0133917 -6.23074 -1.52981
        2.89884 -4.66835 2.50572
        0.304959 1.76324 2.5095
        -2.74287 4.95282 -4.5989
        -0.62831 -1.26838 -8.99879
        -1.07065 1.56579 4.55707
        -2.10139 -0.309975 -3.41789
        2.56057 -3.12759 -2.47642
        1.80646 -2.94792 3.79151
        2.21553 0.626235 0.939167
        4.97999 -2.23078 2.26056
        0.921907 1.8503 1.76506
        -4.96118 6.04205 0.665268
        1.66286 2.98263 -1.19855
        -2.91413 -0.256256 -0.319259
        5.19719 1.48015 -2.36552
        0.821537 -2.57479 -1.1935
        -1.23377 -1.37889 -4.66986
        4.50197 -0.236669 1.66541
        -1.19653 5.40253 3.83931
        0.933983 4.17947 1.45825
        -2.52356 0.0271112 1.83083
        3.55199 3.7414 -0.196774
        7.11713 2.96608 -2.49636
        -0.736313 0.381531 7.27695
        3.41493 2.57172 3.43577
        1.38709 2.77703 -2.63763
        2.02817 1.83344 -4.24902
        4.65505 4.00086 1.01656
        -2.42441 1.49842 0.687947
        1.2714 -0.930459 8.5413
        0.804329 4.69143 -1.37477
        -0.0358299 -1.32045 3.97766
        2.74108 1.73532 -6.07186
        5.61617 3.61194 -2.69025
        0.491389 -1.44514 0.764434
        1.09484 -1.01417 0.505688
        4.83647 -3.14923 -4.72173
        2.88224 -2.81914 -1.8305
        1.88171 0.97649 -3.49781
        2.04666 6.65872 -0.0804168
        -1.80425 -2.62222 7.68027
        -1.17344 -1.46556 1.15843
        2.08492 -5.39597 -0.713629
        -3.05303 7.9544 2.52369
        4.15465 -1.21405 -2.57179
        1.39378 -2.46663 6.91381
        0.328516 5.25649 -2.61659
        -2.66554 4.84596 3.9984
        3.28739 1.85537 -1.78125
        1.09339 -0.974871 -1.7644
        -4.82689 1.40634 3.22322
        2.53356 -4.64741 -2.50905
        -3.85959 1.97685 -2.27455
        0.665636 3.19591 0.737816
        1.64955 4.52693 3.54374
        1.15143 0.37898 1.81733
        -2.90007 0.591645 0.81578
        -0.846719 -6.15667 3.17178
        2.0527 -5.03217 -0.224046
        3.90448 -4.80506 2.9461
        0.218797 2.86003 -1.1986
        0.736958 0.632928 5.68432
        -0.670144 1.36439 -1.24203
        -2.58794 1.98532 2.43452
        -2.96268 3.99981 -0.212121
        -1.96594 -0.0554215 -3.23666
        -2.64921 -1.36242 -5.64762
        -1.83361 -1.13479 3.42859
        3.22005 3.19576 -5.57766
        0.959131 -3.42157 -5.59088
        -0.123448 1.19625 -5.26723
        1.21236 2.88191 1.76092
        -0.574587 0.960035 -0.523816
        1.46376 -0.269935 1.71089
        -2.13098 1.3933 0.0626265
        -2.20858 -3.54521 -2.91864
        1.79262 -1.76774 0.930045
        -3.24344 -1.71732 3.47082
        -3.86333 2.37968 -1.05099
        -2.59342 2.1508 -2.18613
        -1.69032 -0.329731 2.28565
        -2.46193 1.92501 3.457
        -4.53903 -1.34318 0.976533
        -3.33091 -4.53981 -3.3165
        2.96106 0.0888949 0.972493
        1.86241 2.49519 4.96187
        1.95876 -0.520454 0.813964
        -0.491027 -0.957822 3.16753
        -2.91286 -2.05012 -0.253916
        -3.61225 1.66155 -1.7189
        0.653502 4.52007 4.19994
        0.736436 0.109 2.08491
        -0.618102 -0.850768 -0.750582
        -1.867 -3.5388 2.3448
        -1.19801 -2.60432 0.915951
        -3.24597 -4.63384 -6.81341
        1.44711 2.55151 2.04935
        0.105215 -0.794269 -2.21294
        -2.3109 4.98188 2.25026
        6.40185 6.89573 1.61668
        -2.16817 3.74793 1.2878
        0.644902 -7.37932 -3.84326
        4.25014 0.779684 -1.92204
        -7.91375 1.29742 0.765917
        -1.65591 1.96681 -1.60018
        3.8503 0.201116 5.56795
        -2.24344 -1.90437 0.260397
        6.07984 3.17523 4.00984
        -1.39116 -2.50588 -2.75895
        2.24861 3.0278 3.03173
        -1.69994 -1.26169 2.18968
        -4.63602 -5.84533 -1.24603
        -2.12917 1.997 -1.91797
        -1.84228 1.69346 -0.30223
        4.43387 0.240973 -2.06092
        -0.954802 -1.23593 -1.35606
        3.76746 0.504597 8.32737
        -0.226329 -1.26488 -2.51675
        -1.78489 -2.53613 0.323321
        -0.348817 1.61694 -0.858487
        -3.6182 -0.554214 4.35122
        -0.279312 -2.20342 2.44792
        4.91418 0.610194 -0.157106
        -0.48371 -1.67873 0.279499
        -0.692694 -0.137226 -1.19244
        4.07332 -2.13519 0.871863
        -1.95616 -1.92874 -0.825345
        -5.62305 -8.00384 0.861265
        -4.6142 3.48562 6.62502
        -2.03154 -2.32945 -2.48677
        -0.857008 -0.18166 1.69282
        0.48617 0.45495 1.88563
        3.75069 -1.59579 -4.96902
        1.12205 -0.62918 5.77934
        -2.74638 2.43166 1.27532
        -0.781479 0.365615 2.03569
        3.75582 -2.35001 3.91906
        1.49605 3.01934 1.25334
        -3.32848 -1.73597 -1.25381
        -2.85907 3.85607 6.0164
        0.123529 -2.67349 -1.75847
        1.42148 -0.151063 -2.12281
        1.56405 1.11756 -1.20453
        -4.59175 -1.80164 -1.14894
        -5.83115 0.885135 -4.64884
        -0.0378015 1.29323 -0.0451086
        -2.64985 3.20206 2.55495
        1.365 0.381859 3.84293
        -1.32547 -3.17521 -1.85037
        1.15075 5.23887 0.568148
        2.82342 3.42378 6.42106
        0.351164 -2.16262 -1.00569
        3.19085 1.25261 -0.505226
        -3.62048 2.6875 -0.413406
        0.351992 2.04747 2.97678
        0.0117401 -5.14156 -1.3668
        -5.98674 1.67898 1.213
        1.92065 2.35865 -4.32623
        -1.70823 2.01021 -2.25041
        0.0485223 0.74678 0.160505
        -1.97794 1.76851 -0.723991
        1.24698 2.36055 -0.511262
        5.85406 -1.18639 2.79926
        -1.31928 1.5019 -6.20917
        0.457253 2.47389 0.524376
        -2.56848 4.13705 2.8492
        -1.11008 -4.29631 2.08392
        4.37352 2.71854 -3.12598
        -4.11518 -3.04953 -0.860594
        -3.84107 -8.08769 -4.16876
        -2.59004 1.08829 -0.738351
        -4.06771 5.9368 -3.29855
        -4.87398 -1.51351 -3.1923
        -3.57631 0.215247 -0.783066
        2.55798 -3.06214 3.73454
        -4.65607 3.47243 -3.5984
        3.97413 1.21346 -1.36283
        1.59228 -1.55468 2.56657
        1.70741 -0.0716593 0.846662
        0.695726 -0.93752 -6.01917
        -1.42414 4.68668 0.132533
        -2.41479 1.69842 -0.536648
        -7.28997 -0.89228 6.53198
        -4.62316 -4.23402 -0.83497
        -2.12249 1.73958 5.10908
        0.777331 1.37255 2.32086
        -0.3361 -5.48944 0.16912
        -3.6133 3.34684 1.47451
        -1.23786 0.501252 6.96724
        -1.68618 -1.72584 -5.72142
        -6.65393 -3.96183 -1.32212
        -1.09354 0.62876 -0.557834
        2.20606 1.51408 1.93163
        0.498798 -0.0572654 -1.3056
        3.41849 1.11693 3.32726
        2.75549 5.16246 0.0943527
        -0.606447 -0.653257 -1.76497
        2.29515 -3.62123 -1.08146
        -0.357264 2.28823 -3.15132
        -0.995976 -2.86613 -0.48065
        -0.593631 1.89929 1.0653
        -4.902 -0.834034 0.631471
        -2.08289 -1.16754 -0.684553
        -3.75377 -1.5206 -1.17876
        0.855398 2.7301 -5.36409
        -2.48751 1.37699 -4.15245
        0.989862 -4.83104 -0.390411
        -3.97653 2.05378 4.71827
        -0.53022 -0.534542 -1.10764
        -6.41251 1.84998 -2.2886
        2.11915 1.14467 2.82711
        -1.92608 0.00234056 2.5425
        -3.12619 1.50841 1.73774
        2.44873 1.80699 5.06362
        -2.3831 -0.1469 0.815439
        -2.24985 0.356272 2.23694
        1.31093 3.40498 7.91152
        0.636548 -3.05705 0.115598
        -1.0436 1.2535 3.06379
        -2.13038 0.71375 0.753336
        1.49817 1.67034 -3.44675
        -8.88714 1.39485 3.80743
        -1.00337 -1.21587 -2.53952
        -0.466982 0.96074 3.52511
        -4.76042 4.50884 3.05468
        0.498898 8.3207 1.93524
        -1.55451 -3.02157 -0.793724
        0.895076 -0.141836 -1.38575
        -3.28783 -1.3736 -3.33065
        0.847539 -4.14273 3.532
        -3.79437 -2.65281 1.5244
        -2.8415 -2.0652 3.7706
        -0.646633 -4.56237 2.6655
        -2.113 2.86589 0.999326
        1.64501 2.06438 0.0936765
        3.23938 -0.139507 1.15112
        -6.08481 1.02463 -5.04509
        -3.16204 1.79728 -4.79967
        1.70525 -5.03778 -2.83206
        4.29199 3.29679 -2.1651
        -4.23772 -0.461204 2.18982
        -1.63649 -1.00636 2.92032
        1.54179 2.57724 3.32126
        2.86848 0.575805 -1.16738
        1.29429 2.0929 0.324306
        -3.21539 -0.594235 -0.212766
        -0.369687 2.58925 -0.744814
        -5.7414 3.12642 -4.97362
        -2.09015 0.658327 6.23262
        -4.01471 -2.40457 -0.948914
        -0.390862 -1.96704 0.422181
        0.962393 -1.01544 -1.35672
        -3.16685 5.4677 2.00145
        0.693852 -2.30703 6.81816
        -3.72197 -0.824011 0.77018
        -0.831764 0.453242 -4.53243
        5.12303 4.81179 0.793266
        -3.48104 0.979922 2.31636
        -1.26404 -1.96306 0.372329
        -5.2874 -0.273153 0.51158
        1.53028 -4.21499 2.37622
        -1.48325 -4.16504 4.37541
        0.197373 1.88947 -4.42489
        -1.26724 0.924455 -2.34265
        -3.06063 0.609046 -0.0637286
        2.33591 1.68524 -0.473947
        -0.783322 3.23113 -3.82492
        -0.586262 2.01298 2.03554
        -0.0852936 -3.42841 -1.70914
        2.63349 -1.17685 -1.43286
        1.15447 5.77336 3.93786
        -3.32077 -0.287102 1.17538
        2.19223 7.29082 -1.32548
        -0.63861 0.35069 -4.94846
        2.42095 0.214567 2.84913
        -4.57304 3.99583 -1.26923
        -0.502489 -1.71314 -1.16347
        -3.61651 1.70888 -3.24561
        4.27482 1.99874 -2.45814
        -4.49883 5.42281 2.38772
        -4.12586 -6.91181 3.79593
        -3.97186 -1.12265 -4.94187
        -5.56009 -2.03095 -2.07576
        -5.64801 5.15806 -5.19659
        0.986578 1.23222 -1.41216
        1.56816 -0.19058 -2.54435
        -4.44202 2.02242 -4.99482
        -4.10194 -3.32354 1.06485
        -2.54021 -2.29931 -5.18653
        -6.86774 1.43598 6.25342
        -2.00486 4.50255 -1.67437
        5.58849 -2.9449 4.76637
        -1.21416 -0.115014 -4.05945
        1.23682 -2.31397 0.602119
        1.572 2.69972 0.370374
        -3.76754 0.300016 0.667038
        -3.17945 -0.350264 2.25149
        -3.47842 -1.85634 5.0485
        -0.565706 0.375627 -1.18357
        0.687619 0.0162533 -0.214959
        -0.554846 5.20323 0.698344
        -5.41278 1.5967 -0.757505
        -2.39861 1.56639 2.36145
        -3.5227 4.41701 2.73887
        2.52831 2.30892 -2.32594
        1.86588 0.923745 -3.42484
        -4.06064 2.89134 -2.7323
        2.47841 -2.19704 -1.44552
        -0.0454426 6.43029 -0.541701
        1.86919 -0.981666 0.091926
        -0.153268 2.73518 -4.56411
        -3.20362 4.67912 1.17206
        0.198031 4.84683 -1.34847
        4.05954 -3.70081 -3.18803
        0.987467 -6.63616 3.63872
        5.62118 4.78916 3.42335
        -2.61583 -6.033 2.04128
        -1.31303 -0.573124 -1.41665
        7.31763 1.83202 -1.23504
        1.74016 2.60076 -1.24265
        -2.61676 2.63952 -1.26333
        -3.4285 4.25667 -1.60495
        0.0896945 -0.484601 3.50799
        -0.922956 -0.184398 -3.0959
        -1.82336 -3.20456 -2.92075
        -0.343105 2.09024 1.07635
        -1.90507 0.469407 -2.34262
        2.19126 -3.14776 1.55039
        -2.02424 1.11661 -1.88376
        -1.73999 0.772881 1.66728
        -0.69166 -3.46434 -1.73189
        -0.699896 2.68198 -1.76128
        0.621532 -1.62967 -3.94266
        0.327199 1.80209 5.91713
        -1.09199 2.87228 -1.41222
        0.800932 6.86144 -5.31146
        4.09256 -1.73281 3.49733
        -2.79286 -4.08878 -3.26034
        -2.10401 -0.173004 -3.0819
        -1.29584 5.38115 0.983122
        2.66837 -2.27045 -2.23364
        -0.237535 -0.545468 1.63539
        -1.20228 3.17911 -2.36807
        3.49326 0.605871 3.73524
        0.758563 -2.47341 5.54277
        0.967307 0.0423615 2.38219
        0.838182 -3.11129 3.51117
        2.98198 0.269188 -2.89403
        -0.935544 1.53936 0.192294
        2.98102 -0.552881 1.68667
        3.93568 -4.89341 2.9979
        0.648164 -4.12799 4.98366
        1.44207 1.49668 2.10118
        -0.708864 -1.25912 3.34149
        0.673834 -1.42485 -1.42562
        -0.790993 0.844156 -3.55236