<?xml version="1.0" encoding="UTF-8" standalone="no" ?>
<VTKFile byte_order="LittleEndian" type="UnstructuredGrid" version="0.1">
  <UnstructuredGrid>
    <Piece NumberOfCells="0" NumberOfPoints="15094">
      <PointData>
        <DataArray Name="velocities" NumberOfComponents="3" format="ascii" type="Float32">
        3.58558 0.0681975 1.25834
        0.293381 0.0166804 -4.25652
        0.507312 -4.18346 -8.43682
        1.01772 -0.6371 -6.40579
        2.58882 -1.67932 11.6288
        -2.29012 -6.9045 1.61922
        -5.04323 1.68932 -1.96029
        -1.43054 -0.440453 -4.64354
        1.396 -3.09628 -1.59168
        -7.70761 -1.14784 -3.88148
        3.14404 2.30873 1.48181
        0.685245 -0.498955 -3.45861
        -3.0519 2.5921 6.35844
        1.98863 -1.20218 -3.44404
        -4.47853 -2.01336 -0.448451
        3.25083 5.88164 -3.96268
        1.13869 0.47999 1.92806
        -4.02369 0.79436 -3.3696
        -2.69192 -2.84722 0.742157
        -0.806951 2.39312 -5.20768
        3.80751 -4.54359 -2.82716
        1.15064 -2.01252 1.13429
        -0.352137 -3.0949 5.45113
        -4.06864 1.78258 -2.6887
        1.64783 -3.51233 -2.0664
        -2.56358 -1.27695 0.233622
        -1.1516 1.85079 -0.527383
        -6.05614 1.49608 -0.645943
        -0.789882 4.95045 -0.244301
        -2.73391 -2.62123 -2.17802
        -2.00592 -3.81964 -3.02847
        0.647769 -4.98936 0.588152
        -1.19486 -2.1643 -2.70146
        7.64898 2.57661 -0.0952727
        -3.19722 1.33936 3.74345
        6.65004 -6.53691 -2.03396
        0.0843126 -2.67771 -2.56657
        1.29416 1.92067 1.76497
        -5.18794 0.705915 -5.09693
        1.42823 -0.536298 0.602246
        0.252957 -0.256687 -1.52873
        1.25142 0.941855 0.787068
        0.67226 -1.65587 -1.92917
        5.6284 -2.71643 -0.794707
        -0.283864 -5.08595 2.29477
        6.71622 0.415761 -1.26044
        -1.78815 -1.30832 -2.73154
        1.26329 3.88276 4.17672
        -1.87576 -1.58892 -2.92414
        2.79271 0.0231932 -0.184894
        5.51479 -3.26514 -0.270115
        1.35263 -0.496458 -0.0357595
        7.79115 2.42811 0.555628
        -2.83611 1.51369 2.4741
        -2.03127 -8.02788 4.7655
        0.529266 2.68792 -0.98191
        -1.13054 -0.191629 -3.42245
        4.31683 0.524162 -1.9999
        -9.31826 -1.43942 -1.51475
        -3.08979 1.15825 2.26816
        1.15816 -0.0376373 1.51801
        -0.710617 -2.20715 -3.68768
        -0.282951 -1.99972 -1.19931
        3.78892 -2.85221 -2.44943
        1.36684 3.65288 2.76663
        -0.0673982 -3.46484 1.434
        -6.53097 -2.42203 2.38123
        0.00506723 -1.80164 -3.30241
        -4.49019 -0.689135 -0.22718
        -4.58266 5.05953 -7.74353
        6.05997 0.554228 -0.327875
        4.16079 0.328076 2.11944
        3.33901 1.61807 1.60312
        -1.28265 2.32189 -1.48973
        0.187159 -2.72638 -0.328619
        -2.3409 -4.75451 6.60288
        2.22515 1.16818 0.782656
        -8.389 2.96094 0.655315
        -1.85779 1.31696 -1.42084
        0.281967 -0.280938 -0.192119
        -3.12311 2.68016 3.15518
        -3.39281 5.48396 -7.0623
        4.98937 -3.25621 2.37101
        -1.2894 -3.67886 -2.73851
        10.2112 -2.52941 1.45475
        6.05345 1.79242 -1.22385
        -0.733042 -1.78847 1.04441
        1.45403 -2.14042 5.36368
        -3.78328 1.4245 -4.20157
        -1.82901 4.24792 0.464163
        -0.677923 -1.11372 -0.137412
        7.42613 -3.63898 -4.06645
        2.67511 -0.441107 3.60918
        1.03969 1.8039 0.322788
        7.35252 6.83124 -1.07804
        -2.39987 1.3526 -0.121296
        -2.22393 -4.94766 5.39086
        1.57777 -5.75812 1.57908
        -0.597586 -0.370186 1.07541
        2.69682 -0.629488 -2.70565
        -0.420394 8.51055 2.11043
        2.65668 1.28669 1.50663
        2.48678 -4.17216 -1.39355
        4.26309 -0.702046 3.80442
        0.78488 -1.41415 -5.02997
        2.49309 6.43045 0.233399
        -2.69322 0.297356 4.0993
        1.50794 3.13035 -1.30915
        3.87065 2.49541 2.27794
        6.71649 -5.90129 -2.23168
        1.90605 1.59616 -4.64184
        2.55301 1.16939 -7.73115
        -3.28184 -1.69689 -2.26684
        -3.97047 4.10634 -1.87842
        4.41094 -0.742956 0.231427
        3.38306 3.15212 -1.87703
        1.75203 0.22914 -4.34091
        1.05774 4.70662 -5.19403
        -0.263007 1.4527 -0.619264
        -3.32125 1.92559 -1.56175
        0.034652 0.123858 -5.7288
        -1.50503 -7.30121 4.18177
        -1.90144 1.95947 9.1479
        1.69866 -2.61002 -0.128027
        -1.76066 -3.60163 4.53629
        2.30461 3.87127 -1.78658
        5.29705 3.55828 -0.41107
        3.95843 1.99217 -2.95366
        0.599492 -0.89661 0.181849
        -6.11867 0.364197 2.68956
        4.74948 0.351177 -1.46744
        -0.050629 -0.685185 2.62528
        0.874663 -0.69595 1.93712
        -0.678049 6.91939 -10.5398
        -1.58962 -1.28754 -2.67891
        -0.745517 -3.86887 -0.353158
        1.05796 -1.13067 0.884809
        3.25031 -3.65394 -1.72471
        0.278511 1.80462 -2.09157
        3.91963 2.92886 -2.03555
        -1.79822 0.568803 1.20934
        6.98496 0.537532 -1.52598
        1.94149 -4.02811 0.658005
        -4.88225 -4.22223 1.05529
        -6.30134 1.98195 1.83001
        0.933381 -1.44776 2.32768
        2.48918 -2.17439 -1.82195
        -0.360348 -3.83685 -3.41895
        -1.50723 -4.82569 -7.7998
        2.99549 0.293039 0.528931
        -0.482234 2.55345 -0.598947
        10.3223 -0.827213 -2.25672
        -3.84822 -1.63415 0.782525
        2.78762 3.65357 -0.985992
        3.0956 3.24987 -0.927574
        2.31717 -0.478925 -4.44127
        3.89668 0.870478 3.63586
        -4.08125 1.49651 -2.24205
        2.13701 3.99284 1.14496
        2.15595 1.3036 -0.483392
        3.30085 2.58966 -0.249245
        0.952487 -1.1108 0.867826
        -0.399268 5.08272 1.7436
        1.43847 -0.346076 -1.39761
        4.82632 3.70269 -6.50423
        1.65549 -2.8707 -1.23777
        0.0993053 -2.37231 1.7368
        5.76072 -2.55153 -2.43708
        1.74384 -3.13713 0.0138909
        -0.591431 0.496045 -2.40697
        0.197763 2.99097 2.55502
        1.84969 -1.24709 7.94871
        0.844434 4.62352 0.505816
        1.45736 6.05231 1.61439
        -2.11881 -2.55648 1.87703
        1.59925 0.531455 -0.313204
        -2.98897 5.62847 -3.80064
        0.199093 4.75318 -0.237932
        3.76979 2.53867 3.15619
        4.44686 0.586475 -1.56513
        1.02985 -1.4011 4.15523
        -2.53323 -5.56061 4.14331
        0.872464 2.9091 1.75531
        8.65698 -4.05577 0.335882
        -1.37404 2.14618 5.64506
        3.01969 -0.783355 -2.63719
        -2.05501 2.03355 2.09672
        4.85815 -3.0724 -4.74676
        -1.57892 0.783521 -2.13293
        8.22502 2.91733 -4.2566
        -3.42634 6.03264 6.52312
        -2.37597 0.706267 -1.7758
        0.726396 -2.12633 1.50106
        -2.93572 0.0923777 5.14032
        4.41433 -0.0297342 -5.18802
        2.24796 0.979036 0.646698
        1.75866 4.54738 5.17151
        5.42407 -3.56717 -0.37929
        -6.15798 -3.09879 0.209341
        3.97978 -3.55714 2.93192
        -3.4899 -1.81571 -0.786384
        2.07732 1.25588 -2.6217
        1.63126 0.160289 -1.00952
        0.710081 0.98647 -5.6091
        6.23957 1.8445 1.84565
        -7.2647 -0.117952 6.05572
        -0.980621 5.32966 -3.28231
        -2.84862 -0.901619 -5.62602
        3.75013 -4.30634 -4.40796
        0.688812 -1.4115 -2.58498
        -2.45283 -1.57272 -2.14026
        8.33862 -2.20998 -0.982226
        -1.18324 2.21175 2.87578
        3.43304 2.4583 -4.87499
        3.58568 0.478613 -3.20686
        2.60419 2.61992 2.97822
        2.85831 2.9809 3.34221
        3.38045 1.84771 -0.200045
        0.492812 0.0426346 0.512392
        3.15819 -2.21794 -0.578354
        0.936355 -4.12676 -2.93238
        -2.94709 -4.27737 5.58056
        -0.971347 -2.12282 -2.60034
        2.99374 4.2248 3.52591
        -1.58332 -1.97597 -5.31822
        2.94337 2.63683 -2.91871
        -0.520183 -1.72329 1.16025
        5.4633 0.392606 -2.21424
        -10.0565 -1.3872 -3.62858
        0.422009 2.65893 -0.612443
        0.902802 1.72266 1.7541
        10.4798 -5.05183 -4.60974
        7.56369 0.250111 1.0966
        -0.0726417 0.63272 0.171172
        -1.7424 -0.849873 2.72317
        1.88548 -6.69753 -4.34439
        9.77681 3.89327 5.95991
        -4.64232 -1.67257 3.15328
        -0.348511 -4.25188 1.5769
        2.65067 0.38414 3.97588
        0.842271 4.98963 0.535354
        2.99739 0.378902 -2.83959
        -1.01956 -2.74599 0.776464
        -1.23688 -0.038358 1.74106
        -1.17605 0.184657 4.94064
        1.41599 -0.641492 -6.12899
        2.80117 0.913359 -2.02398
        0.825711 -3.58391 2.47376
        4.07256 -0.728056 0.816111
        4.06702 -0.946965 -2.06556
        4.89801 7.19125 2.98185
        -6.42765 -2.14308 1.8799
        -1.95436 1.27929 6.01162
        3.9202 -1.59741 -3.2831
        2.2374 0.261538 -2.10599
        3.57178 -2.27147 -2.91857
        2.04368 -1.43168 4.87884
        2.32985 -0.221534 0.920457
        1.80726 3.54679 -1.34046
        -1.9915 6.66391 0.860002
        2.21215 -2.88584 1.63568
        -1.91976 1.476 4.4669
        0.397962 -0.595623 1.12996
        -3.64281 -2.00307 -0.315089
        2.28449 0.648185 -0.369132
        -0.139668 0.681727 5.1791
        3.02897 -1.72315 1.64709
        -0.885616 -2.92654 -3.25759
        3.33657 -3.15985 1.58406
        3.70705 6.57848 -6.81818
        1.23583 -1.42977 -1.07151
        -0.89039 -1.77941 0.462368
        1.4639 3.15455 2.6061
        -3.70799 1.07373 -1.43156
        3.64489 2.18072 5.13503
        -5.28222 -2.18595 0.236513
        0.971188 -1.21205 3.29515
        2.87167 2.40441 3.13658
        4.15578 -0.982278 4.51188
        2.60292 2.03287 5.65491
        -1.40735 1.81111 2.61787
        -0.485115 -2.31228 2.65376
        5.48978 -0.902629 -2.13471
        -2.80554 -7.13616 1.12149
        -0.609633 -3.74823 5.41264
        -4.69024 1.53272 3.34962
        -0.11639 0.13511 -5.75794
        0.000460855 -0.408153 9.96436
        -1.45223 -1.18977 2.01197
        0.00935214 0.554312 1.3792
        -1.97577 -0.0906047 3.50865
        0.379634 0.684464 1.66749
        -0.704831 0.962465 -1.21601
        4.46936 7.42788 1.54339
        2.90687 1.26028 -4.00997
        5.87187 0.541996 0.961455
        2.03354 -0.66644 1.79579
        0.399618 4.16069 2.33744
        2.08037 -0.786723 2.81257
        0.859777 0.347193 -2.88016
        -2.43228 7.21922 -4.34895
        5.154 -4.26506 -0.802739
        -3.00913 -7.85904 3.13575
        0.60066 -0.39877 1.7044
        -4.07221 -3.32261 1.04947
        0.940126 2.65785 -2.41342
        5.19354 0.65829 5.6918
        -0.128423 -0.777374 -2.1389
        0.490442 -0.776546 -3.97065
        3.48482 -5.97017 -0.517501
        2.6681 4.37327 -0.0391196
        -3.62814 -2.61157 3.0212
        -1.00884 -4.02874 -2.93421
        -2.06286 5.35384 0.337143
        1.80223 1.31865 -4.59324
        4.17672 -1.95522 2.31645
        -3.46145 0.171128 2.64607
        -0.923608 -3.28788 -4.70384
        0.0403217 6.72343 -5.9249
        -1.84065 7.08741 2.38031
        -7.92441 2.71723 2.71759
        -4.44668 -2.77696 -1.55311
        -0.895574 7.0983 -8.38428
        -2.40184 2.22249 0.894721
        2.15901 1.48503 -3.12946
        6.53719 0.363674 -2.5563
        -0.933899 1.78407 4.76951
        -3.20036 -4.25502 2.35105
        0.53039 -5.83591 2.87294
        -0.238728 -2.83338 1.12083
        2.98606 -1.36469 1.04465
        3.32256 -3.82468 3.174
        -2.78004 2.6311 0.227755
        1.45221 -1.95593 4.49242
        3.42067 -5.53457 -1.05441
        -3.14099 -3.36463 0.420036
        -2.01525 -0.943194 4.32321
        -0.0636922 0.715607 0.445226
        1.45897 5.5284 5.10058
        1.0213 -1.54589 3.11657
        -3.95477 -2.71935 2.17343
        -2.70789 -1.21514 0.177575
        -4.25708 1.04482 0.769323
        -0.545229 2.66488 -3.68715
        -0.105843 -0.633769 -3.33222
        -4.92065 1.40902 2.22543
        1.19461 3.90657 2.09114
        1.28031 0.585695 2.9292
        -1.94318 -1.69372 -7.59125
        2.03602 3.03314 1.03419
        3.71439 -0.885319 1.08061
        2.22601 -4.83725 6.38754
        5.31173 4.19039 -5.05392
        2.13406 1.37506 -5.56579
        3.26548 0.858978 4.52198
        -2.96093 -1.34203 0.760949
        3.59108 -3.23927 3.15528
        -2.05864 -3.02771 -2.75803
        -3.57426 3.7599 -1.64988
        2.68434 -0.860751 0.708851
        -0.352995 3.60428 2.89734
        8.80844 2.63098 0.776635
        -3.03324 -1.57807 -2.1547
        2.69955 -1.03117 0.881345
        5.17438 -4.57106 2.24048
        -0.974124 0.890281 2.49103
        0.961243 -0.997056 -3.14845
        6.45844 5.20289 1.03543
        -1.49567 8.11013 -3.71395
        0.896974 -3.88148 -2.33253
        0.1439 0.698415 -1.63236
        5.32252 0.209467 1.86456
        1.34191 -2.02918 -0.903714
        -1.40512 2.33338 6.06484
        -4.30256 -2.17197 5.21569
        -0.941011 -4.76709 0.48464
        0.426784 -2.99041 -2.2429
        -3.77746 -0.267829 -5.77388
        -3.20213 -4.70874 -2.61172
        1.06042 0.165048 2.90261
        0.134789 -2.91626 0.315178
        -1.97419 -2.41037 -3.33067
        0.129552 3.45342 -2.10077
        -2.85855 -3.6799 -4.2667
        -2.11006 2.68786 2.06242
        1.08679 -8.51729 1.38347
        4.50207 -5.50903 1.25894
        0.0291175 -1.78894 1.26725
        -4.18495 -3.91226 1.04496
        -0.404725 -4.1863 -0.843828
        0.766143 -1.59083 -2.74875
        -5.53448 1.75085 0.426593
        0.123901 -1.01403 -1.38655
        1.35392 2.50994 -2.89017
        -1.6234 2.3859 -4.11268
        -2.81333 1.78062 -2.29959
        -1.03958 0.151362 1.70435
        -1.42588 -1.20866 1.11935
        -4.01773 3.05937 3.45691
        -0.646835 4.63811 -4.27487
        -1.29664 1.51496 -0.273256
        0.258403 2.0257 -2.15209
        -1.57939 -4.41662 6.52267
        -2.17116 -1.17144 -4.4917
        -3.22526 -2.80439 3.93572
        -0.572579 3.69835 -3.53514
        -0.506473 7.6328 6.49365
        -4.88633 -2.81817 -4.17437
        -0.777601 -0.840827 1.7309
        -5.61005 -0.0185352 -1.66363
        -0.886671 1.08968 2.50147
        2.92909 1.39351 1.14787
        3.29955 -4.6066 2.08924
        0.707177 -1.50061 1.24065
        1.2719 1.68656 2.41693
        -0.842562 -3.47669 -0.924148
        -4.34391 -5.04517 4.99435
        1.11564 -6.44723 5.72139
        -4.08535 0.512685 1.37702
        2.75626 2.80777 -0.206248
        -7.93564 0.304138 2.61274
        2.17569 2.20944 1.28182
        1.43288 -1.57527 6.59311
        -2.21447 -5.86102 -0.707427
        0.84456 -0.472283 1.81048
        1.0737 2.9405 1.02366
        -3.68169 -0.231402 0.104756
        4.47131 5.89027 -2.75978
        -3.84889 3.58592 0.403782
        2.35039 -0.0380194 -2.07031
        4.30331 5.71531 4.53501
        -5.98941 -8.54455 0.499994
        -0.771833 0.318394 1.12585
        -1.67792 -5.67101 -1.29147
        1.15181 3.14497 -3.07063
        -1.59858 6.68141 -7.20744
        2.651 -2.80576 2.91731
        -2.12543 -0.737589 1.33324
        0.04573 1.8676 -1.18392
        -4.06724 0.464378 5.23236
        -1.17241 -1.66431 0.0591308
        -5.01226 7.00919 1.01275
        1.74297 -3.87502 -2.23036
        2.94384 -2.18618 1.77877
        6.19501 6.1652 -1.01607
        -1.81967 -2.95234 3.88494
        -2.27487 -3.354 1.94404
        1.49809 -5.67069 2.18438
        -2.40243 3.92491 0.98586
        -1.11486 0.378421 -0.5841
        -1.72248 -7.13716 -1.54354
        -4.54547 3.75192 -6.02629
        -2.74425 2.38043 3.49602
        -1.80125 2.54156 5.36981
        -5.48038 -5.49444 3.8323
        2.54638 5.65994 0.529539
        6.21233 5.122 1.75256
        -3.472 -2.72421 -2.90465
        3.16872 6.37989 -5.81795
        -2.41845 0.111888 -0.217966
        1.17594 -2.4342 0.136305
        2.74118 4.20477 5.54882
        -3.75281 -1.41462 -4.55171
        -8.2786 -4.70414 -0.0980343
        3.921 2.52141 0.675869
        0.628714 -2.06475 -1.29381
        3.01417 4.69808 2.86951
        1.54919 3.44928 1.80725
        -3.29706 -1.10629 -1.16509
        3.26618 -0.268503 2.67141
        -1.30137 0.664981 1.14943
        -0.675792 -0.687251 -2.55279
        4.32818 -1.52877 -0.87542
        2.99594 -1.91858 -2.54105
        1.87272 2.85041 -1.87067
        -2.28355 0.513704 1.16528
        -2.50326 4.55373 -3.33434
        -2.4434 -0.21369 -1.0314
        0.398682 -0.650947 1.55307
        -4.59121 3.3313 5.109
        -5.31775 -0.839071 9.75756
        0.271007 -0.0455472 0.805989
        4.07523 1.53818 -3.84754
        -2.73843 -0.983793 -3.2578
        -4.23796 -7.06474 -0.398228
        0.232353 -2.86285 -0.446258
        -1.87294 4.53547 3.72647
        -2.20512 -5.33655 -0.415632
        -0.485142 0.664488 -0.469493
        -1.55339 3.18231 -0.211442
        3.20153 0.94966 2.28112
        2.13026 3.57052 -4.36654
        -1.49435 2.23362 -2.4903
        3.57034 1.15296 -2.05567
        -2.26163 0.605397 0.172045
        2.27528 1.13783 -1.82093
        -1.80932 -4.42154 2.76865
        -2.36178 1.08833 -4.64764
        4.19892 -1.45892 -1.8847
        1.57552 5.36252 -1.24174
        5.94632 -3.32417 -6.07105
        1.47982 0.178998 -0.354819
        -1.00463 -0.920324 5.35179
        0.55381 -0.0312903 1.81794
        -0.878862 -0.945953 -3.06686
        -0.602906 -0.716133 -0.00148155
        4.92164 2.71555 1.94675
        -2.50178 0.331709 0.381531
        -0.595748 -2.90538 -2.18498
        -5.77016 0.596972 -0.572321
        3.50275 -3.96674 0.305749
        -3.28909 1.1493 2.72759
        -1.39731 2.69504 -0.478895
        1.5141 0.753369 3.72536
        -1.19453 -1.47198 -0.318798
        -2.23376 5.14631 -1.70804
        -4.86204 -1.57611 -3.03536
        3.74373 0.87248 -2.8133
        -2.03856 4.35159 -3.94439
        3.41803 -5.07417 0.996099
        -3.03675 0.56268 -0.287255
        -2.15537 0.307422 -6.06664
        -0.888639 4.75519 -4.23521
        2.66956 -1.28469 4.97789
        0.0185693 -1.32849 -2.05968
        -2.46088 -3.07375 4.53202
        -0.741296 -3.85943 3.89727
        -1.77208 0.585992 2.13769
        -3.33975 4.76515 -0.0557483
        0.349474 -5.84921 7.49764
        0.615264 2.10073 3.03311
        -5.51474 1.19572 -0.459211
        1.57718 2.80085 3.33534
        0.808993 4.57894 0.529579
        -2.34421 7.88425 -3.82147
        1.72646 0.0621384 5.24156
        -1.14944 -0.917295 3.85369
        -2.528 -3.01092 0.481917
        -3.33711 -2.03699 -1.22356
        -0.292081 -0.200441 0.905764
        -3.74049 -0.059244 3.96132
        -0.950359 -2.45332 5.85114
        -3.50079 -4.54425 -0.0198752
        -0.125187 -1.9298 -2.39925
        0.592782 -1.99337 2.8964
        -8.56171 -6.44686 3.02411
        4.3074 -4.1632 5.29779
        -3.71838 -2.9252 1.07773
        5.80689 0.72395 -2.90588
        -2.21143 3.60404 -1.31066
        1.77465 -1.80354 1.40871
        1.78767 -1.24075 -4.16519
        -2.35406 -3.85546 0.984242
        -4.84639 1.05298 2.64469
        -8.70027 7.51138 1.96816
        -1.72835 7.36911 -4.49668
        -5.51144 0.403886 -0.884227
        -0.235907 2.56191 1.33919
        -1.21437 0.217623 -3.93334
        0.431702 2.80622 2.11867
        -4.98535 1.79867 4.22482
        2.339 1.70708 1.02083
        -3.13218 -1.8168 1.44197
        -4.66806 2.78702 4.91854
        0.979316 0.225212 3.40586
        -1.35921 6.19696 4.88461
        -5.11478 6.22745 -1.72288
        -0.577681 2.51198 -1.69438
        0.400117 -1.35598 -3.85489
        -5.00289 3.70119 2.47787
        -0.427247 -0.170847 -0.431229
        3.96687 1.47399 -4.59605
        -0.432098 -4.15789 0.664965
        1.95966 -2.13105 -3.60857
        -0.512122 2.0554 -0.801918
        6.70595 -1.26842 -1.68202
        -6.94609 -3.0828 -0.467354
        -7.75168 0.744093 -0.824871
        -3.38882 0.383528 -0.130581
        -0.575836 3.64241 1.22799
        -2.93411 -4.726 -1.49247
        -0.578978 -2.62255 -4.96279
        3.23535 4.89018 -0.897921
        0.32067 2.62071 -4.40527
        -2.78578 -0.266872 -1.2713
        -2.91615 -1.91527 0.554494
        1.91096 -1.56651 -2.54596
        0.769908 1.43669 -0.287128
        -8.27247 -4.11445 -1.86529
        2.70513 -1.2178 4.72759
        -0.197513 4.69293 0.272485
        -2.65497 -5.57297 -5.56022
        -3.50046 1.03043 -0.495862
        -0.246489 5.04026 0.114429
        -1.80939 -0.931713 -1.21645
        -0.537327 -1.65031 2.5723
        -4.62773 -2.01958 1.32787
        0.472187 0.167615 2.6875
        -4.61935 -3.76289 -0.611224
        -0.302132 3.95036 1.13857
        -4.89856 0.232196 0.274251
        0.340242 2.87465 2.26425
        -2.39314 -0.220298 -2.69175
        -0.940824 -0.382492 -0.930674
        0.539444 -0.879222 -1.78367
        1.04709 3.81715 1.00043
        2.03838 0.179653 -0.886888
        0.362624 5.24906 1.89071
        4.00807 -1.74531 -9.22323
        -0.565244 -1.61702 1.27199
        -4.22713 -0.501783 1.2827
        -0.184876 0.315268 1.03041
        5.73642 -3.32257 5.40648
        1.5734 1.02121 -1.2091
        -2.87754 1.27487 -0.533533
        -0.914837 -1.52787 -3.36859
        1.46773 -1.78034 2.6841
        -1.68778 1.53119 0.610416
        -1.8891 -5.35015 1.77213
        0.245641 -1.83618 -4.22388
        0.432435 3.45161 3.46743
        -2.7605 -2.09212 -1.14183
        1.89635 0.660714 1.52087
        4.25201 -3.37443 -1.31842
        -1.5467 4.76545 -7.88842
        -7.594 0.815321 3.62758
        -6.00955 4.00535 2.4516
        -0.163896 -1.8683 0.842464
        -1.17684 4.16946 0.0270402
        0.962648 -2.40722 -0.24093
        -4.108 4.17628 -2.77544
        0.987352 2.6688 3.62125
        -8.04963 -2.09864 0.647406
        0.00113308 -2.09062 6.83459
        -2.70723 -3.94452 -5.92261
        0.02314 -1.07652 4.50781
        -2.81057 0.375022 0.102896
        -1.31745 0.617222 -0.329675
        -3.15789 0.0603025 0.107158
        1.47939 -0.274983 -4.75266
        2.75023 2.07336 0.719832
        -1.49147 0.0344389 -5.36633
        -1.46463 -4.0504 -1.64403
        -1.36489 2.34759 -1.23718
        -0.280471 -1.46506 0.380478
        3.8789 -1.3489 1.50926
        -6.58344 0.376561 0.0300302
        -6.21396 -0.0340549 -1.83339
        -0.051831 -4.39789 1.5378
        -1.74926 1.68741 -3.25436
        -0.166104 1.52927 -0.129249
        2.32329 0.100892 -3.02849
        0.681414 -2.26717 -0.337817
        2.2407 -0.506888 -6.22946
        2.57665 -1.14276 -0.38357
        -2.89837 2.95127 -4.35772
        -13.0698 2.0483 2.07396
        1.8762 3.73885 -4.34058
        1.55369 -1.10478 2.45022
        -1.63976 2.9239 -5.02696
        -3.39874 -2.19905 5.5295
        -2.38109 2.0793 -2.86603
        0.417741 3.2868 0.666013
        0.86539 0.507556 -2.47147
        2.8551 -2.6505 0.635733
        -2.80921 2.05185 7.40772
        0.0811269 0.862339 -2.55016
        -3.02241 -2.28327 2.88563
        -6.32092 -2.81077 2.24379
        6.9049 2.40302 -3.32992
        4.14287 1.00063 0.340669
        -6.72158 -5.06033 0.92355
        -2.4979 -0.597851 0.672266
        -2.34072 -3.05652 0.515015
        -2.87365 1.02795 0.57111
        0.654671 1.07357 1.96307
        -2.06796 -4.37476 0.644444
        1.71873 6.39159 -4.96726
        -4.55504 1.28846 -1.7917
        -1.24751 1.33711 1.6867
        -6.69544 -7.14337 5.11001
        -3.92197 -1.54872 -2.29967
        3.53387 -1.62369 -2.02912
        -0.942899 3.90805 -3.38868
        0.273493 6.26754 4.75651
        -4.87565 1.44373 2.87314
        0.306278 -0.565065 1.53955
        -2.64388 -1.84331 -1.19074
        1.50757 -0.633016 -0.092156
        -3.57016 -2.16775 4.16254
        0.559866 6.00653 -3.34656
        0.310059 2.6806 -4.48559
        -3.73155 -4.08449 0.236674
        -3.5456 -1.06698 2.49614
        -1.31991 -4.27162 0.838054
        -0.775108 -0.51922 3.6136
        -1.6146 -2.55978 4.9636
        2.86303 -1.59073 0.0973932
        4.24769 -1.73993 2.10182
        -3.41523 0.0418993 4.78295
        -6.21551 -1.42161 1.04691
        -6.53563 -2.35386 -2.44096
        -1.50274 4.52099 -2.13643
        3.67911 4.24505 -0.92417
        0.90659 3.18754 0.334531
        0.42857 1.06107 0.821597
        -4.79368 3.46503 -3.6735
        -4.82095 -1.79107 -1.56214
        -8.5536 -0.189298 -5.34979
        1.64998 -1.08554 1.87408
        0.51274 -10.3622 -3.52935
        -1.85989 -2.00981 3.1776
        -3.30343 3.70007 -3.36114
        0.135218 1.00918 3.84245
        -0.733992 0.552277 3.3622
        -5.36326 -7.00346 -1.67798
        -2.083 -2.56384 -0.0883854
        0.83213 -0.57868 3.2195
        -3.158 -1.34714 -1.48916
        -1.75031 1.55866 -0.160853
        -3.99432 -2.37523 0.619542
        -3.51697 -0.583525 5.76163
        2.2152 1.54564 -0.188677
        -3.96774 -0.575423 -0.0649073
        -1.94238 0.565908 -4.15646
        0.99773 -1.30368 5.16203
        -2.37094 0.16201 -2.12362
        1.12722 2.27976 1.30935
        -1.55695 9.13763 -1.42906
        -7.60772 3.27013 2.86745
        -2.7034 5.83675 2.07523
        -3.77311 -2.29663 2.2385
        4.18479 -0.0250122 1.9626
        -2.88076 1.73817 0.331241
        -2.92441 -3.51456 5.76404
        -4.53136 2.46654 0.806034
        2.60225 -2.43865 5.42134
        -1.09243 2.38683 1.01143
        2.75336 1.98888 -0.890783
        1.9225 2.06074 -6.5034
        5.23052 -0.212166 0.316671
        3.28711 -6.1847 0.328623
        4.99575 -1.44165 -0.0206308
        -1.51091 1.52951 -6.18385
        -1.83081 -2.98143 -2.23721
        -2.81288 -1.93359 -3.0884
        1.91857 0.728721 7.27527
        -0.543736 2.74342 2.36284
        -3.06761 -7.04494 4.74996
        0.0673256 0.59592 1.70873
        -3.98411 5.59152 0.936059
        0.564514 0.876478 5.06996
        -1.87302 -1.02937 5.01077
        -0.791805 5.70369 0.974821
        2.33904 4.85958 -0.991885
        -6.6203 -2.3418 -0.582506
        3.18777 0.784641 2.3877
        0.572075 -3.02275 2.19075
        -1.40488 -4.22289 -5.63286
        -2.15787 -6.11697 0.758796
        0.908346 -1.35182 -0.998547
        -3.08694 0.470449 2.65155
        -7.02499 5.97201 -1.29932
        3.61071 -1.37777 -2.79647
        -5.20984 3.166 6.6824
        -1.76843 -4.42043 -3.76149
        -1.65678 -2.61073 -0.515681
        5.25059 -3.36442 -1.78507
        -1.61509 2.92396 -0.174255
        -1.31529 0.804677 -2.16133
        1.45112 7.31577 3.01541
        3.24859 -3.21232 1.47242
        -4.29818 -2.83689 -0.48799
        -0.357215 1.58294 -5.58461
        -2.12397 0.64196 1.0555
        2.69328 3.42701 -2.43528
        1.08897 1.38304 -4.63049
        -3.64013 -0.156897 2.13233
        1.55707 1.43525 -2.40196
        -0.799712 1.54913 2.20245
        0.659055 0.745407 6.73681
        0.944705 4.23106 -3.75881
        1.56261 -1.13929 2.24386
        -7.79778 -0.590355 -1.61118
        -5.11251 3.31319 0.033345
        1.92061 -0.223198 3.2387
        5.78671 5.16017 0.621961
        -0.174027 3.40149 2.00959
        -3.1066 0.372949 1.76741
        1.34377 -1.00838 0.895673
        -0.859802 -2.42599 -3.54816
        -6.09991 -1.35624 -3.55382
        -2.66282 4.62117 2.31881
        0.196028 -0.832486 -4.4787
        2.64611 -2.04316 0.0510399
        1.29135 -0.505851 0.524676
        -0.288066 1.39284 2.23912
        2.62853 -2.14415 -1.38446
        2.87734 -1.20422 -5.34326
        -4.05609 -2.20713 2.03655
        -0.602119 -0.00421753 -2.94085
        3.47331 -1.71405 -0.249883
        -1.16225 -0.335464 1.15452
        1.71047 -3.8813 4.35029
        -0.604036 -3.47868 2.37983
        -7.22228 -2.67813 3.2201
        -4.47394 2.65081 -3.30636
        0.237955 1.62292 -4.46068
        -1.27696 0.0901827 -3.66495
        -0.30433 3.17429 -4.69854
        -1.36959 -0.781312 -5.8935
        -4.37693 1.07203 -7.5149
        3.05068 -2.94435 2.30623
        0.0885174 -5.11811 4.8311
        -4.27676 -7.09298 -0.402359
        -0.615442 0.399711 -5.37589
        -4.94359 -2.34229 0.0362119
        2.46022 3.83235 0.43847
        6.50386 1.11663 5.26417
        -3.47389 3.40663 1.11498
        -1.22254 -0.566201 0.12033
        0.347607 -2.96797 3.68282
        3.46537 4.54301 1.52208
        0.903939 -2.43823 -0.494778
        0.107287 2.31301 -4.20726
        1.05359 1.59442 -2.61334
        -5.61621 -0.880833 -3.49166
        -1.67399 1.80827 -3.7978
        -3.51383 -0.941516 5.25121
        0.101871 8.71212 2.80202
        0.359804 1.77391 -1.60421
        -3.17064 -5.00233 0.979202
        -4.47924 0.121901 1.21939
        -3.6853 2.78749 -0.222515
        2.1712 -1.11101 -3.33102
        -0.255317 -4.25564 -6.85157
        -2.70555 0.624454 -2.1891
        7.87121 -0.376569 -0.852256
        -5.42999 -1.9306 3.45308
        -0.706385 2.29817 -7.08383
        -2.59942 -1.06134 0.437429
        -0.282405 0.470447 0.451314
        -2.02394 -6.11521 -0.531187
        -3.01003 -0.462485 1.501
        3.19902 2.14138 -0.193412
        -1.8402 0.878098 -2.79297
        -2.95638 4.52858 -1.21535
        -2.51026 2.9609 0.931297
        -1.55546 -2.88251 -2.09097
        -5.00605 -0.952437 -1.88481
        -2.2635 -3.21704 -5.74381
        1.74196 0.166574 -3.38196
        2.7752 2.32908 3.15989
        -0.456026 -1.87207 -1.2609
        1.47841 -2.83171 1.06866
        -4.58951 1.89702 -4.51182
        -0.882345 4.31524 -1.36243
        -1.43054 4.19244 -2.2052
        -6.25891 1.05537 0.286736
        2.17796 0.45024 -1.63512
        0.247338 7.05362 1.96045
        -0.554424 3.51069 -3.12296
        -1.19037 0.64358 -0.812786
        -3.86618 0.631941 -1.22851
        0.87108 -0.935243 1.87753
        0.366674 -5.08146 -2.22321
        -1.30467 3.13163 0.47644
        -6.45075 0.912949 3.14279
        -3.63476 0.792245 -0.731933
        0.108287 -0.361266 -6.47951
        -3.05246 3.13254 1.37211
        0.323839 -1.59919 3.89614
        -1.67462 1.06507 -1.84088