<?xml version="1.0" encoding="UTF-8" standalone="no" ?>
<VTKFile byte_order="LittleEndian" type="UnstructuredGrid" version="0.1">
  <UnstructuredGrid>
    <Piece NumberOfCells="0" NumberOfPoints="15094">
      <PointData>
        <DataArray Name="velocities" NumberOfComponents="3" format="ascii" type="Float32">
        5.81672 -0.0558626 3.45363
        1.39463 1.40336 9.52672
        0.408172 -3.54578 -2.71203
        -2.98637 -1.56635 6.59278
        -3.2878 -0.479405 -4.22402
        -1.26434 3.29603 -3.63482
        -1.40487 2.8752 3.59452
        -0.749074 -0.661653 -1.51084
        4.65465 -0.728323 -3.73415
        -3.06485 1.26728 0.491568
        -0.327834 4.86746 7.2936
        -1.33211 2.68388 -1.79399
        -5.27895 -0.945544 -2.57535
        1.58147 -1.20536 1.33152
        1.26073 2.56653 -1.11998
        -2.70164 3.60192 0.162571
        -0.165579 1.43684 5.27285
        0.513592 -1.87017 -2.48529
        0.150608 -2.86133 0.640141
        3.14652 -1.70679 -1.17929
        6.42571 3.894 -2.48875
        1.31678 2.72879 -1.94872
        -7.71807 -0.03877 -0.655883
        1.67271 -2.79164 5.68152
        1.562 -0.720965 3.83632
        2.7997 -3.52505 -4.90651
        6.36464 4.86526 -2.03693
        -2.84232 -1.31441 2.05474
        1.25256 -0.331262 7.56161
        2.06447 -0.793043 0.849956
        -0.941873 -8.83875 -8.55842
        3.47325 1.13128 2.24511
        3.99235 0.0222685 3.18451
        -8.15284 6.48452 1.61871
        -3.51455 0.576663 2.97173
        6.01974 8.8256 3.75929
        5.22047 0.694007 2.92112
        3.31968 0.269017 -0.155989
        -2.29716 0.228966 5.96247
        -1.59072 -1.85496 -3.11281
        -3.74414 -0.360065 2.07784
        0.37734 -4.56565 -4.78146
        3.16937 -3.46816 -3.42577
        1.10802 1.3877 0.603462
        2.67118 -2.2695 5.86669
        -4.37199 -4.09298 1.89199
        -0.236573 -3.28137 5.04838
        2.66128 3.16343 -3.62138
        -3.29029 -4.01993 0.246721
        0.785595 -5.25601 2.15404
        3.7347 -1.72287 3.57663
        -2.75113 2.29666 3.1898
        -0.800052 1.20879 -0.241599
        0.0622096 8.13203 0.801443
        -2.13249 0.128933 3.20494
        0.124513 2.78432 0.451889
        1.13489 -3.59927 1.36551
        1.97221 1.22828 -2.18782
        0.721209 1.16775 1.33412
        0.519494 5.30688 -4.04506
        -5.61986 -5.28793 0.765546
        4.04912 -1.67257 6.91068
        1.10651 -0.808379 -4.46551
        -2.01121 -4.54389 0.74162
        -0.8884 1.15588 -2.07707
        -6.11197 0.572944 -0.0285014
        -1.61787 0.296977 -3.26346
        -5.74983 1.26827 -6.02226
        2.19869 -2.61094 0.150385
        0.147414 7.82534 -2.22895
        -8.79876 4.96134 3.59807
        5.14595 4.63563 3.65872
        -1.09247 -0.780085 1.50827
        -0.4047 1.35263 -2.33052
        -2.4449 3.36844 1.63434
        0.721334 1.98238 -0.681904
        3.36051 0.00413421 -5.58809
        5.02795 1.12049 0.513283
        -4.72264 0.503935 0.660446
        -0.176863 -2.24553 -0.397191
        -2.60991 0.0845956 2.69285
        1.00499 0.304548 5.73369
        -0.00576244 -1.18315 -2.51484
        -0.0319991 -4.64573 4.53202
        5.17954 3.41196 -8.22349
        -0.344152 -0.949307 -7.11839
        -5.38 2.83276 -0.885265
        3.25509 -0.162262 -4.9022
        3.94942 -6.18219 3.06468
        -2.40262 1.45573 4.80276
        -1.615 1.22093 3.16876
        -1.40306 -2.51635 -4.51317
        2.64285 -3.20298 0.689494
        -1.20805 -3.37271 6.75827
        -3.64303 2.56689 -1.78757
        3.15902 8.32893 2.95133
        3.7221 -2.73541 -2.42762
        -4.60502 -3.1582 1.63525
        8.60898 3.68994 5.52813
        0.377914 0.492513 1.89839
        -3.98981 -3.12821 -2.4954
        -4.98964 -2.09626 -0.990337
        8.1322 2.5885 0.274653
        4.019 3.56616 0.157923
        -7.20516 2.43696 0.913342
        -6.75661 -0.538303 -4.49155
        -5.3352 -4.01173 0.0249338
        0.498785 -0.729507 3.42553
        -2.14829 -2.81281 3.27993
        -0.176861 -0.555307 -0.455143
        0.927491 -3.23174 -0.764925
        -1.83493 -3.61648 3.99652
        -6.25296 0.229497 4.90793
        3.26191 3.62726 4.04893
        -1.83787 9.66873 1.59317
        -3.00027 0.0718326 4.73154
        -0.460319 -2.32312 1.70573
        -0.225978 5.23435 3.74961
        -5.35075 1.50568 -2.76009
        -2.06191 5.51273 -5.07671
        -1.46198 2.78111 2.66984
        4.11397 -1.67424 -0.83125
        -4.64453 -3.8431 -2.68032
        2.46265 1.17874 -1.83634
        3.65946 -0.404137 -4.97032
        2.03775 0.215796 -1.53946
        3.57471 -2.1041 0.973345
        4.2185 1.47036 1.40065
        2.60606 -6.35564 -2.39947
        2.54798 2.5673 0.486534
        -4.2643 -0.614414 -2.57909
        3.34309 3.00168 -3.28348
        -2.05857 0.495983 4.43056
        4.16097 -3.28955 -1.2398
        3.24565 2.84029 1.64385
        -0.37501 3.66776 0.162356
        3.13437 1.43327 0.873009
        1.73907 -4.37277 4.08388
        4.97061 0.0106239 1.16816
        -2.99944 -4.54243 3.40669
        -1.93126 0.322883 1.70714
        -5.88718 -2.55253 0.642369
        1.12385 -3.57416 -6.94204
        4.74194 -1.29506 2.30297
        1.34833 0.711027 -0.0424272
        -1.41813 0.689306 1.29977
        -2.60624 2.82914 -0.290751
        -2.91544 9.43866 -3.68978
        1.23424 4.68019 5.90248
        0.337508 3.43857 -2.88619
        -2.72458 0.882621 1.45569
        -7.19004 2.54175 2.70024
        0.989143 -3.79263 -0.627883
        -9.02506 4.93376 -2.79577
        -4.85365 -4.41175 2.64271
        3.78647 -1.00164 -1.20938
        -1.79761 2.47843 -1.34399
        -0.0970035 1.71912 -1.33809
        8.34553 -2.75754 1.0272
        -1.39847 1.83361 5.80563
        -6.42852 0.444061 1.04565
        0.824836 3.38906 -1.19409
        1.72044 -5.1805 0.408192
        6.41991 4.81953 -6.01558
        0.266129 1.39185 -1.087
        0.479568 0.852463 -2.18042
        3.34818 -0.699761 3.30842
        2.66675 9.44289 0.696896
        3.65472 -2.06473 -2.00812
        -5.44985 -2.55574 2.6318
        2.90586 -0.577411 0.657247
        2.43466 2.82137 -1.92797
        -3.67436 -1.67158 3.86296
        4.56306 0.787551 -1.63515
        2.89657 -1.36418 -2.04321
        -3.23359 0.216452 3.4008
        1.43247 -6.13409 2.91504
        -3.43434 -0.811459 0.201674
        0.432078 0.42188 1.83663
        -5.92112 5.1559 -1.18869
        0.294092 -2.72329 2.05395
        0.0763961 -5.36695 3.7522
        -3.63883 -0.463675 -3.32887
        0.892439 2.80246 2.64802
        -5.58691 6.01401 1.62256
        3.16152 4.39158 -2.13584
        -3.53765 -1.25178 4.28626
        6.32674 -3.82381 -4.61888
        -1.2325 -2.42798 -5.22731
        1.81216 -1.20342 0.183811
        -1.49255 1.34066 2.74525
        4.09736 2.41333 -1.60288
        1.2681 -1.38918 -2.93425
        -0.321128 -4.87403 -5.92037
        2.32496 -7.05937 4.97447
        1.53184 -1.51951 -1.86205
        -0.176649 -2.60438 -0.650028
        1.11852 4.76931 1.97762
        -1.7845 -0.209973 -1.85472
        3.68046 1.47761 -2.578
        -6.29371 2.38919 5.47187
        3.42173 2.67536 4.02247
        -7.53544 8.68756 -1.66632
        0.0403549 5.20505 1.1061
        1.60714 3.29554 3.27387
        0.756839 1.26703 1.01766
        -1.15524 0.534306 0.246641
        0.922112 -2.67547 -2.84106
        -2.22661 -4.52401 3.84358
        3.98979 -2.87668 -3.43222
        -2.0081 3.33782 9.55024
        1.53758 -0.865111 -1.00751
        8.10612 -5.65799 -0.256031
        2.61594 -4.14711 -2.54359
        -3.51272 2.76054 0.446596
        6.17252 -0.043405 -2.01143
        -1.54275 0.376062 -3.49624
        -7.92298 -6.27746 -0.177298
        7.94674 2.38902 -2.98074
        -1.00136 0.178575 1.33864
        -6.49451 -3.63267 3.50538
        -1.5946 -4.67953 2.11945
        -6.12606 1.49786 2.10616
        3.9483 3.44108 7.68635
        -2.41793 -0.145822 0.912129
        -5.13276 5.88328 0.463744
        0.582829 4.73424 -1.25286
        1.03905 -2.47874 0.240881
        -0.563297 2.54903 0.700504
        2.96606 2.6039 -0.998119
        -7.66475 -0.568011 -7.41268
        -2.01665 -4.22359 -4.02262
        2.71661 -2.88824 -0.637088
        -0.487501 7.09484 -3.8631
        1.04194 -6.03314 -2.70557
        -1.66152 -7.30715 -7.42109
        -3.93912 -1.44731 4.95767
        -3.86962 -8.21395 -2.77243
        5.97623 0.0645828 3.01114
        -1.21642 -0.251943 -1.38377
        -1.4397 -2.51906 3.25092
        -2.88849 5.17013 2.40112
        -2.62408 -1.20884 0.777689
        0.710739 -3.92153 -0.220009
        1.45193 -0.822037 -1.60121
        0.27651 2.52849 1.86279
        3.92191 1.50935 -1.0134
        -3.87891 3.35749 1.30891
        -1.93276 -2.0719 0.631144
        5.1732 6.46987 -3.05181
        -0.767944 2.54954 1.94439
        -1.69206 -0.236923 1.97294
        -0.900953 -1.11257 3.21556
        0.643656 -0.806962 -0.361999
        -0.978624 -1.1527 4.76089
        0.288132 -0.821687 3.39596
        2.46672 -4.03236 1.57227
        -1.23777 6.89676 0.670955
        -6.29712 -2.81426 -2.69578
        -0.525858 2.71717 0.974954
        3.62766 -1.44186 1.57088
        -1.02782 3.93765 -8.04309
        -2.31668 -4.03921 1.56428
        5.10345 2.07434 -4.14078
        -2.43667 5.85772 -1.55321
        3.13632 -1.50091 0.879232
        -1.60318 0.727188 2.32462
        -4.78202 -1.966 2.15454
        -0.332383 4.1872 -1.72146
        -3.19094 3.46116 2.62693
        6.5519 0.449546 -5.11505
        -3.7286 -0.0623195 -3.82336
        2.0915 4.17343 -0.650946
        3.99094 -1.89579 -7.64122
        0.692539 0.404519 1.30388
        -5.24803 4.37107 7.27295
        0.326141 0.709845 1.13213
        0.485384 3.10252 -3.32913
        -7.578 0.886005 -0.964058
        3.77683 -2.75306 0.588031
        4.34811 5.3688 -6.65761
        0.235787 1.12048 3.31629
        -0.655282 0.765033 -0.440796
        1.88658 -3.98937 -3.84213
        3.82806 -4.29664 0.846335
        3.46491 0.0399522 3.35799
        0.498688 -0.62285 7.07961
        1.41062 -4.06759 -0.0768524
        -3.05281 -1.69648 -0.690525
        -4.05864 -5.22688 -6.29838
        -6.10074 9.46233 -2.00418
        -8.06631 -3.61886 6.31466
        -0.255295 3.48299 -3.34058
        -1.7852 -4.15713 3.05157
        -0.795382 0.199138 3.68557
        -2.97556 -3.87399 8.03249
        -1.46514 1.54236 -1.37598
        -8.331 1.07651 2.08079
        -2.74561 1.08909 -1.8462
        3.83368 -5.77087 2.69077
        0.843133 3.38216 10.6484
        -1.16623 -3.32091 -1.70375
        -0.71968 -3.0589 -1.98936
        -4.33944 2.92946 -5.05185
        -1.03723 -2.46911 -0.705455
        -0.393757 3.12439 6.19037
        -2.15979 -5.29236 -0.500256
        -6.2451 3.09207 0.0143475
        -4.41369 -1.1591 6.93244
        -3.67647 -4.20089 1.53197
        -4.22444 0.941026 -3.896
        1.53157 -1.36846 -2.40341
        -2.60635 3.8684 8.58848
        7.8714 0.391704 2.04344
        -2.12684 0.343904 -2.33276
        -7.17787 -0.613014 -3.75377
        -0.873828 -1.78992 -4.45578
        -3.52039 -1.79973 4.32368
        -2.64727 5.26033 -4.31218
        0.131477 2.80552 -3.16789
        -2.91548 1.31018 -2.92009
        -0.956928 -4.03497 -0.427574
        -4.03865 -2.88525 -0.908103
        -2.5697 1.01849 3.56124
        -0.890688 -2.89823 3.62411
        -0.203563 4.93805 -0.284299
        -2.3222 2.26298 9.62819
        2.12027 1.5099 -0.536444
        3.83811 1.25941 -0.746101
        -0.523509 -0.327168 1.22543
        1.13097 3.81445 -1.46047
        2.18342 -0.709791 -1.12081
        2.95782 -1.2259 -7.03526
        -6.99135 6.77389 2.31875
        2.45475 -0.160741 -3.14943
        3.41795 -1.01983 1.56069
        -5.54388 6.94915 -0.132323
        2.22532 0.819034 4.40227
        -2.73048 -0.655397 -4.31546
        3.2798 0.0710776 -2.35843
        -1.45032 -1.69306 1.12673
        0.253934 -3.00264 1.31783
        0.825862 1.54026 1.43481
        5.18239 -1.53185 1.91244
        1.10601 3.36102 -4.45375
        -5.00727 -3.9736 1.34896
        1.38218 6.59248 2.21612
        -1.98577 -2.36944 2.4813
        -0.0920121 -5.88436 0.584764
        -4.30798 7.84346 -1.76458
        -2.21452 6.39986 1.72312
        0.608584 7.78218 -4.23934
        -4.5583 -1.45608 -3.66769
        2.17834 -7.02246 -1.39362
        -2.24294 -0.732123 -0.432668
        -0.0275677 0.365397 3.60853
        4.81514 -0.14973 -1.8722
        -1.68522 -0.964613 1.09115
        -8.85726 -0.270817 2.42237
        -3.35226 -1.73625 6.85672
        -1.86107 -5.6844 -1.43089
        -1.99984 1.76862 -0.739709
        -1.40654 -3.24871 1.76653
        -2.58103 -1.62105 -3.00856
        -4.39643 1.20034 -0.768337
        -2.13765 3.31719 3.85294
        -0.93802 3.68478 -2.31796
        5.68733 -7.99345 -1.83548
        -3.73653 -1.57968 -5.82135
        -3.65444 2.49813 -2.01944
        1.64323 0.183819 5.38838
        -7.11664 -3.94317 -0.655506
        -3.19176 -6.98305 -1.35581
        -3.10343 1.82137 -4.34833
        -3.30888 -0.859315 -3.84546
        1.01259 -6.16503 1.42201
        -6.97164 -3.67783 2.33416
        -6.37258 -1.0546 0.741924
        -6.26849 1.51527 -1.98181
        -3.37101 -2.77192 3.07919
        -2.11513 1.64059 1.831
        -5.15937 -2.91192 1.05025
        -2.57248 -2.37515 3.5485
        2.2836 4.03673 -2.78094
        0.508552 -6.00485 -3.38755
        -1.24904 2.57176 0.507782
        -5.33196 0.0174653 -2.28246
        -2.88841 2.8441 -2.19356
        -0.587745 0.404945 -0.482876
        -4.02752 0.944378 2.6144
        2.3286 3.75087 2.42444
        1.72947 4.03221 -3.6756
        -3.12197 2.51411 -5.32512
        -2.2079 1.4619 0.0633486
        -8.23872 2.2294 -9.8089
        -3.23771 -3.62221 5.12041
        -1.37386 1.88612 -1.14329
        -4.08756 1.98105 -0.197078
        -0.0828381 2.89115 0.140842
        -10.5049 -0.108053 -1.77159
        3.88054 0.818254 -3.60784
        0.365777 4.06614 -0.0300252
        -2.0108 -0.849731 1.03346
        -9.54957 2.31412 -0.0494708
        -2.55415 -4.81044 -1.42064
        -4.76008 1.81228 3.23961
        1.15064 -0.217483 -2.74582
        2.66234 0.747357 -0.0527202
        8.98288 -3.07795 2.61571
        -0.736029 0.269978 1.35117
        -10.0868 -3.02578 -0.458368
        2.69903 -3.26516 3.59115
        2.77481 0.797116 -0.114385
        -4.87974 -1.41594 0.80382
        0.542189 -2.95547 5.58952
        -0.653696 3.20255 -2.06659
        -2.03401 7.22759 -2.56658
        -4.66063 -1.5268 -7.81817
        -3.71335 4.94768 1.23452
        2.5458 1.77761 -1.72748
        0.7212 1.38157 -2.80108
        -3.66331 3.19009 2.92892
        -0.1142 -2.10239 -2.82219
        -1.45935 -2.07794 -0.26604
        6.27172 1.96398 -1.98417
        -6.63803 -1.29596 2.86042
        3.03404 -1.78799 -4.29937
        0.975304 6.18949 0.594303
        0.30157 -4.31752 1.34532
        -3.99922 -2.14683 -3.32622
        -0.0347948 1.27409 -1.32672
        -0.941187 0.960948 -5.23856
        1.33998 -4.38775 5.49893
        2.18241 1.75636 0.821906
        1.39791 0.996027 -4.56152
        4.29565 -1.65059 1.43716
        1.91146 1.5924 -0.775147
        -1.64186 -2.35725 -3.94346
        -0.41097 0.0109181 -0.583119
        -4.0327 1.33799 0.849946
        2.92224 -1.26423 -0.306963
        -6.31338 0.28226 1.27317
        -4.38345 -1.40397 -0.0436144
        -4.99593 -0.0684129 5.50766
        2.63049 -1.12084 -6.39428
        -1.77999 4.87154 -4.99227
        -3.01323 6.85328 1.22238
        -0.433403 8.15769 -0.813331
        -2.51364 4.43213 -1.09473
        -1.71806 -0.770098 10.6712
        0.558362 0.20412 -0.5304
        -2.22438 -1.1255 -1.23383
        3.72861 0.619995 0.143284
        -6.40075 -2.71691 0.122366
        -1.90013 -2.5973 0.992429
        -1.41566 2.98005 -4.0125
        -0.103353 -3.69926 -1.38926
        -0.633263 -2.82013 3.63298
        1.44192 5.70082 -0.536083
        -4.1545 0.408949 2.1352
        -3.05358 4.83328 6.19806
        -0.946805 -0.55375 -4.75364
        0.672594 -0.226682 -1.11626
        -1.23114 -1.55654 -0.95315
        -3.5785 3.06758 2.07175
        2.76777 -4.03504 4.87129
        -7.37013 1.22003 0.141724
        -3.1419 -2.29866 -1.37919
        -3.2649 -1.21582 -3.10666
        -0.0993689 -0.153617 -2.59372
        2.07561 2.22114 -3.0569
        -1.16421 -0.419279 3.10131
        -3.7622 1.34885 -1.58907
        -3.25236 -0.40665 1.44562
        -0.61593 -2.74792 -4.47633
        -0.304823 -6.41931 -0.0627993
        -3.94767 0.633675 0.509735
        -0.520708 2.60008 -1.08296
        -2.4526 -4.87344 -4.10476
        -0.788939 1.91728 -2.20424
        -1.0037 3.50791 -6.16674
        2.05487 -2.00116 -2.85753
        -2.62441 1.1405 -1.36829
        -0.498481 1.66315 1.10446
        -3.44697 -2.21113 -2.01513
        -4.24398 -2.01857 7.16925
        -6.53491 -2.73174 0.0771861
        6.0389 2.27569 -0.2216
        7.25349 -2.17943 -1.70514
        -4.79133 0.794936 1.6557
        -1.4945 -2.37844 2.42064
        -0.378588 -1.85574 -7.02758
        4.60132 -3.71479 -0.41448
        -1.4465 4.49715 -1.2021
        -4.27786 -4.06466 0.302443
        -7.01324 4.35627 -0.199552
        -2.85779 3.85487 -1.05538
        -5.9015 0.99323 -2.47725
        1.16908 1.88983 0.303185
        -0.259247 -6.81158 3.94578
        0.931469 1.40407 -2.69633
        -2.51844 1.54516 -1.80764
        -0.64425 -2.66235 -2.11381
        -0.194452 -2.26513 3.03379
        -0.696699 5.33319 -2.06137
        -1.02693 0.0357149 -1.91433
        -2.11638 3.15054 -4.03187
        4.41656 -2.69512 -1.04264
        1.66063 1.84188 1.24452
        3.17853 -5.17031 -3.15683
        2.04856 -1.59252 -2.07036
        1.48649 1.93292 1.68343
        -0.344922 1.16774 4.48668
        -3.47078 -1.4698 7.96279
        -2.59547 -1.65098 -2.61915
        -0.144906 2.29623 -3.87852
        -1.63355 1.76996 4.15235
        -1.71289 0.853598 2.21971
        -1.31569 0.926115 -3.60595
        0.833718 5.22056 3.27149
        -6.13146 -6.10988 3.00259
        1.18119 -4.61645 4.19662
        -5.31208 -0.547271 5.67521
        0.542925 -0.446769 -1.00064
        -3.26577 -8.7167 0.149855
        4.9928 0.833126 -2.5435
        0.671362 -1.33901 -3.66284
        3.57333 2.22946 -3.25828
        3.4121 3.56782 -2.67666
        -0.403384 -5.86758 0.0128407
        -4.96435 1.30279 -1.9676
        3.29507 1.53215 2.00626
        -2.81081 3.95049 -2.8065
        -1.38319 -0.962925 -2.49006
        -1.11104 -0.125993 2.55223
        -3.41442 1.71786 2.28764
        -3.56583 -3.9232 -2.75305
        -1.43137 0.482255 3.94555
        -2.59658 0.976205 3.3164
        4.76944 -1.56273 0.822693
        1.59891 1.06536 0.308028
        -0.955533 1.70858 3.22014
        3.95046 -1.46626 -5.54883
        -0.569066 -0.22825 3.83751
        -5.24244 0.0617552 2.12961
        7.98958 -2.5265 0.353564
        0.969147 1.00599 -4.80474
        -1.29726 0.62799 -1.13152
        -2.871 1.05518 1.04388
        -2.61484 3.96261 -6.75004
        3.10602 5.13157 1.58965
        0.00439849 -2.20563 0.232227
        -4.12267 -2.01996 -3.00688
        2.41127 7.75792 -2.17464
        -1.05434 5.25875 -1.91967
        4.46615 -1.858 0.34855
        6.00026 -5.09371 6.21582
        0.0438597 -4.0248 -1.53169
        0.928706 -1.48709 4.99782
        2.34568 2.51491 0.67484
        2.97521 -0.495569 -1.34477
        -5.11703 0.466703 0.14722
        2.21218 -1.75751 -7.58728
        0.468535 -1.44273 -2.37245
        0.794311 3.59319 -2.85087
        -1.74994 -1.71075 -6.1546
        -1.55341 0.145629 -2.30872
        3.26212 -1.47479 1.1689
        3.50766 -0.0900703 5.38176
        -0.32759 1.67551 -2.29559
        1.80203 -2.00129 -2.01408
        -1.53277 -1.61489 1.17861
        -0.125803 -2.05325 -1.08568
        1.17535 -4.58889 -1.84632
        -2.204 2.22785 -4.17378
        -4.82645 -1.2045 -1.34226
        -3.25181 -0.539864 3.02654
        -2.82664 3.12125 -3.19129
        -5.04779 0.67559 1.07753
        -3.42519 3.44216 2.27917
        2.32099 0.087688 4.19306
        -0.159733 0.0234504 -0.82723
        -1.4337 -4.4174 6.25237
        -3.66479 -2.61477 -5.41665
        -3.18177 0.851963 -5.02411
        -2.28066 -2.52369 2.95193
        0.956963 -0.894113 0.985372
        -5.21168 -3.8988 -2.94935
        7.25839 3.11694 -1.96884
        -2.2745 0.932477 0.070698
        -2.83462 -3.01475 -5.57718
        -3.38088 1.52199 3.16771
        -1.85509 -2.73412 -2.18453
        -1.48735 1.01295 -1.42794
        -5.922 -0.0376147 -1.51598
        4.22559 1.24706 -1.03549
        -0.192048 -1.6588 2.26605
        1.20421 0.790789 -0.645494
        -2.86206 1.72495 -0.911459
        1.365 -2.51042 -2.27025
        -3.15604 -2.55127 1.31425
        7.95344 2.83489 -3.62141
        -2.65519 -1.09264 2.7306
        -6.6757 4.74575 5.0647
        -3.07129 -4.32152 3.36896
        -2.22263 -1.91944 1.18663
        1.40718 0.302125 3.76843
        -3.11136 0.633918 -0.001405
        -1.50857 0.743453 2.45071
        -3.02716 -5.94139 2.76813
        -0.840113 -3.0219 1.84984
        2.63045 0.0718076 5.13643
        0.438148 -3.00069 1.96483
        0.0414966 4.52181 -2.41952
        0.348555 -0.656825 1.93026
        1.75578 1.21892 -2.71017
        3.06423 -1.7305 2.01383
        3.70432 -0.405683 -6.63276
        -2.80922 2.39578 -1.2288
        -2.04837 3.94989 -0.9424
        -5.36065 -3.20901 -6.87489
        3.4289 -2.40172 2.11838
        -1.43592 -2.8071 4.45085
        -1.6892 -0.402851 -0.572101
        2.16443 -0.331505 -0.86097
        0.174545 -1.97705 -0.0275645
        -3.19175 0.008103 -0.350077
        3.22306 -0.815662 2.41659
        -0.804671 -2.27112 -1.96437
        -1.82746 0.0468553 2.06584
        2.88737 -2.36327 -4.20268
        3.29348 -1.39463 0.351477
        1.49732 0.778967 4.14571
        -2.76751 -4.67861 7.50849
        0.391158 -4.1957 -2.87093
        -1.26106 -5.86347 1.42481
        3.60706 1.39049 0.946056
        -1.83658 -0.680369 1.85364
        6.72028 3.16752 2.01813
        2.3511 0.917704 -1.71015
        -1.36055 0.234161 -2.01561
        -4.87377 -1.23839 -0.362524
        -4.24216 -1.18705 -2.64802
        2.47586 -3.24602 5.56868
        0.153079 -3.2805 2.66035
        3.36428 -1.54039 1.3473
        -3.21907 0.110765 -4.00187
        5.16922 -3.27448 4.75435
        1.92735 -2.14497 0.127275
        2.14154 0.559792 -3.38857
        -1.86556 -0.847629 1.73469
        2.31171 -1.2595 0.797688
        4.55221 0.525283 -0.0408149
        4.64618 -1.67024 -4.20026
        1.18975 -3.72943 3.14739
        -0.0763959 0.549389 0.153456
        0.204342 6.74888 3.82071
        -1.81392 -0.343704 -0.307019
        -0.599502 2.35431 -3.48602
        -0.829956 2.36231 -1.48298
        -4.30217 2.37783 2.30003
        2.54911 -1.43861 -0.502399
        0.540276 -4.94938 3.42174
        -5.5579 1.0029 -2.65801
        2.13654 2.17778 1.0472
        -1.66544 -9.77193 -0.697257
        -4.62725 -0.683118 3.83067
        0.886071 2.55863 4.19528
        4.87249 2.93638 2.25635
        0.00302535 -1.44405 -1.33597
        1.64918 6.89743 1.76232
        4.7163 -1.72352 3.64657
        -0.303151 6.19339 5.03777
        -1.50022 -3.52151 -1.01289
        -4.81997 -1.73497 -2.61623
        -1.48083 -3.70316 -2.32123
        -1.83867 -3.91292 -1.19394
        -1.6582 0.0324368 -0.356807
        -1.60169 -0.929383 -0.850214
        -5.951 4.01566 2.15314
        2.74669 0.801418 1.55098
        -3.39485 4.77141 4.66868
        0.0944298 8.84562 -1.0289
        2.61753 -3.31271 0.580589
        -4.31359 1.3383 2.48223
        2.72656 2.50495 1.05054
        3.1318 -1.38621 -0.492227
        1.80161 -3.25828 1.68985
        -4.35798 -0.705728 -0.27839
        -0.153263 1.06828 -0.527856
        6.78673 -1.88871 2.69836
        -1.48883 2.59354 -4.76166
        -2.009 -1.6214 0.417362
        2.57226 1.78231 1.23355
        -1.39195 3.34526 -4.65547
        -1.08072 4.47251 2.61239
        0.129103 2.96678 -4.05477
        -2.56326 0.0852162 0.0143484
        -3.62416 0.987113 -3.19027
        -4.62148 -1.65977 -3.75865
        0.145403 -2.24279 -4.89944
        -3.38058 1.66222 -4.89572
        -1.39386 -1.06537 0.797086
        0.907634 -4.79563 -0.197303
        -0.412476 -2.4001 3.36231
        0.415965 -2.10911 -3.82796
        -0.413169 3.66441 1.48392
        -2.60457 -1.26746 -2.11959
        -3.99529 -0.290946 -2.43426
        -1.87369 1.72399 1.3061
        1.62571 -1.36719 -1.0607
        1.81899 -0.626843 -7.19616
        -2.92461 -1.91652 -0.611356
        3.28745 -1.13912 0.764791
        2.30211 -2.36725 -6.74411
        -2.15436 2.90505 -2.27024
        -1.55536 -0.211237 0.994998
        -0.900798 1.96179 0.965785
        -3.7758 -3.51598 2.10507
        4.12318 0.0891391 1.24658
        -4.22366 1.10347 -0.14133
        0.392389 -3.19156 1.65616
        3.20169 3.44273 2.34699
        -2.27527 3.49538 0.489454
        3.66369 -2.32047 -1.45541
        0.475144 -2.7452 2.67541
        0.616784 -3.603 -1.44008
        -2.01802 1.32283 2.84175
        0.928479 -4.31329 0.907085
        -3.4134 1.36777 -3.23097
        -5.64842 1.21936 -5.97282
        -1.8037 3.89699 -1.29282
        3.38699 1.00612 1.21443
        -4.90027 1.25774 3.71398
        -3.18555 4.63907 -2.86152
        0.854208 -1.57162 -1.4095
        2.39936 -3.06503 -0.266208
        -2.63217 -1.04152 0.9825
        -0.385122 0.754971 -3.5481
        -0.17103 1.95706 2.24328
        3.69143 2.51636 1.65515
        -0.24409 1.80598 -3.79352
        -0.350369 0.117015 0.782146
        0.51103 -2.42889 -7.51534
        1.88685 3.49834 -1.00496
        -0.607113 2.75277 -0.979857
        -6.882 5.79398 -2.95018
        -1.76774 -1.47009 -0.694304
        -3.1404 0.506589 5.38004
        -3.19023 -0.204332 -1.2732
        -1.94076 0.257819 5.33904
        4.39342 -5.80476 3.30038
        5.28343 1.1892 3.72322
        3.35938 -2.60037 -3.06617
        0.721229 0.486158 2.385
        -2.9938 3.40126 1.73436
        -6.05647 4.49467 -3.71422
        0.447828 5.36069 -3.27189
        -3.78714 -3.21112 0.885708
        1.13029 1.62696 -2.41909
        1.24839 4.15315 1.84793
        2.87771 0.704782 -1.94465
        4.98259 1.53079 6.10553
        3.30789 1.58227 -2.09784
        4.27681 -7.25534 -0.563279
        1.63633 2.72012 4.09407
        -1.12239 3.25675 -4.65546
        0.35784 0.965216 4.07101
        3.81229 0.941593 1.96505
        -3.06167 2.71288 0.0938011
        4.74073 -2.18155 2.70744
        2.96102 6.16949 4.64466
        0.864237 -2.55435 -1.43263
        -1.43707 2.47377 -1.30354
        -6.26432 -2.34931 5.02058
        -4.72248 0.502233 2.11186
        -6.98352 -3.47898 -0.292915
        2.04275 0.104244 -4.81205
        6.48859 -0.059443 -7.3229
        -4.55067 -0.926808 -1.48423
        -6.88797 -1.75852 -2.13378
        -1.77408 4.91654 -2.60671
        -2.45104 1.71949 -1.10223
        0.547 -8.9066 -2.31932
        2.68733 2.16318 -5.72926
        -2.56588 1.35895 0.344434
        4.33368 1.78707 -7.48321
        6.90052 -5.9584 -7.5575
        -0.0955772 2.61854 -0.264607
        -0.34004 -0.974825 -0.48967
        2.69477 -0.389622 -3.46329
        -2.29332 0.81164 -0.158789
        -4.78971 -3.17821 1.9981
        -2.09695 0.308056 -0.919268
        1.47587 -0.303353 -0.00365746
        -3.04288 -3.7403 -2.43743
        -0.506757 3.93579 -1.99472
        3.13204 -6.5146 -5.42666
        -3.63524 -0.623061 4.08885
        5.36108 8.05552 -4.50304
        -2.3979 -2.00746 3.5498
        -5.25972 -0.360732 -6.38415
        1.12079 -2.93616 -0.68396
        6.55462 0.393447 -1.23469
        3.50864 -2.53304 6.38753
        -3.18487 0.308225 4.01871
        -2.65039 3.61791 -0.9695
        0.360831 2.59746 5.66731
        -0.434659 -4.90246 0.631699
        -2.11245 -1.47577 0.0389994
        3.6566 1.16939 -6.77961
        -7.03127 6.685 1.69848
        -4.83985 -2.77753 -2.23361
        -4.01604 4.66483 -0.268705
        4.19944 0.321372 -4.22621
        -2.78981 3.28016 5.10396
        3.69247 6.97275 -0.479109
        -0.433648 -0.467967 1.15045
        -2.13727 2.47964 4.95075
        -1.49635 -3.33385 1.87093
        -1.02414 1.0189 -1.36095
        -7.41636 4.51876 7.41651
        0.69785 3.65315 6.55821
        0.210918 2.0431 3.01436
        -1.51115 -1.75245 -0.263384
        -2.22397 3.72022 2.2009
        -2.66335 0.212426 1.24714
        -5.30077 -1.27022 3.40119
        0.543741 2.65001 1.97675
        0.912156 4.73674 5.24866
        5.82808 -0.223926 -0.266058
        0.902857 -3.19428 3.68212
        2.70333 -3.52336 7.65165
        -1.96657 0.437955 5.92285
        -1.85872 -2.47841 1.05425
        0.758131 0.355336 1.49274
        -1.03525 -1.00542 0.429401
        -1.05839 -3.07565 -5.90405
        -6.05094 -5.28117 0.692285
        0.315803 8.37596 -1.55882
        7.18261 1.15531 4.81115
        -3.48498 4.65329 -3.68038
        -4.97899 1.21922 0.537803
        11.4445 3.88941 -4.26669
        0.0609385 1.40295 -3.94408
        -2.39211 1.77643 -7.61353
        1.4422 -8.20426 4.18692
        -0.182097 -3.21887 -0.560982
        1.48933 -1.01577 6.49469
        -1.47629 5.50706 1.44092
        -0.822258 -3.04793 1.07558
        2.98457 2.73928 0.373086
        -7.87652 -1.60232 -2.7615
        3.65336 0.693638 -0.701295
        3.94497 -2.87742 -2.73996
        -0.455306 1.96104 1.24197
        -4.1379 -2.51943 3.67883
        1.58767 -0.104866 -0.753972
        2.35448 5.45198 2.6661
        1.25913 -0.0215966 -1.99708
        4.91575 3.88361 0.715344
        -3.9725 -1.93592 0.277601
        -1.30624 -1.18321 4.42482
        -2.30929 -1.47295 0.688004
        -2.98424 -0.832555 1.21178
        3.67961 4.41657 -2.10802
        -0.565795 -5.2062 6.53552
        -0.452826 0.224727 -0.44805
        -6.75044 3.45401 8.79886
        -4.01525 -5.00331 8.46775
        1.91415 -4.81673 -5.65805
        -0.228193 6.90531 -6.92979
        -2.19304 -2.8799 -1.82704