<?xml version="1.0" encoding="UTF-8" standalone="no" ?>
<VTKFile byte_order="LittleEndian" type="UnstructuredGrid" version="0.1">
  <UnstructuredGrid>
    <Piece NumberOfCells="0" NumberOfPoints="15094">
      <PointData>
        <DataArray Name="velocities" NumberOfComponents="3" format="ascii" type="Float32">
        6.1306 3.85125 -6.07247
        4.22337 1.76794 -0.144501
        -0.94027 0.104846 4.07295
        -2.20208 -2.06006 1.76677
        2.23088 -5.33794 3.07591
        -0.269449 2.07964 -5.50441
        1.09754 -0.877347 0.7011
        -2.64697 5.79485 0.533808
        -1.01861 -4.09974 0.195778
        1.76294 3.46697 4.34219
        1.19884 1.03278 1.12846
        4.15629 2.71746 -0.716818
        -2.70329 1.85289 -1.6617
        -1.41612 0.0468543 -0.566992
        1.89055 -1.11162 3.80044
        2.37375 -2.58361 0.134669
        -0.392389 0.0602766 3.24236
        1.74733 -3.7653 3.26647
        -0.74404 3.25468 1.6675
        -1.71227 -2.39882 -3.33916
        1.29481 -2.65021 -0.403621
        1.34179 4.60594 3.59776
        0.873734 -1.42908 -1.20218
        3.15256 2.91923 0.217645
        1.17299 0.490113 -1.07352
        -2.11282 -3.31557 -0.295647
        4.46083 2.88205 1.11208
        0.0239735 1.04328 -1.94111
        -1.0187 -3.85692 -2.52667
        -2.1244 -1.38094 2.84152
        3.29729 -3.69608 -1.44812
        -0.602115 -0.970906 -4.4591
        2.10944 5.74269 -4.45129
        -4.24533 -2.91893 2.55524
        -2.59734 0.118974 -1.66734
        -1.2601 2.43376 -1.38388
        1.71282 -4.10593 -5.13796
        -4.14815 -1.24055 7.6914
        0.675238 -2.4412 -6.43099
        -1.6308 0.598544 2.50602
        0.133941 -2.14093 -6.1062
        -1.60162 -0.139923 0.349861
        5.99981 2.6335 -0.732152
        -5.92802 2.91729 6.87832
        1.7042 3.61521 0.746005
        -2.16254 1.49979 0.951334
        -0.844873 2.73608 1.44373
        1.19862 7.75501 -5.73151
        1.58555 -1.27681 -2.27865
        1.19296 -2.86415 1.12124
        1.89552 0.729114 -1.19246
        -4.65398 -0.99575 -1.96535
        3.38215 -3.49233 -2.81586
        3.56454 -0.773374 2.47659
        -2.84797 1.03335 4.95138
        0.850225 0.889884 2.07188
        0.41497 1.88336 -0.700856
        2.79316 5.63935 -5.93499
        -1.20161 -3.40584 0.425789
        -2.24856 -3.95038 3.40144
        4.44542 0.803673 -0.155892
        -0.369127 1.05447 -12.0925
        -3.00547 -3.45463 -1.43169
        -0.45151 -1.19756 2.49093
        0.443165 0.408303 -6.17424
        -0.55571 -2.13074 -1.4331
        -3.44096 -0.422203 1.01944
        -3.4323 4.49683 0.321868
        1.71039 -1.79071 3.45284
        0.759668 4.19658 -0.632174
        -3.1812 0.652629 -1.2819
        4.69748 -2.01319 -3.5887
        0.662876 1.88303 0.181675
        -0.210476 -2.25609 0.0434953
        -2.49452 -1.30158 -2.73118
        0.422192 -1.92081 -2.17152
        -1.78493 0.332771 4.03365
        -1.70523 -0.921606 5.38386
        1.10473 -3.221 -0.251549
        0.951256 1.90023 -4.76582
        -2.29271 -1.48948 -3.98751
        0.585429 0.844398 -3.87451
        1.40041 1.61179 -0.221436
        -2.05611 3.81384 4.8038
        -0.537642 0.0113351 -2.00786
        -2.27939 -4.23432 -2.15496
        -3.62272 -0.2213 0.317102
        2.55754 1.39586 -1.13751
        -1.26166 3.84168 2.19455
        -0.894246 0.421797 -0.982526
        -0.619777 -0.147873 3.46141
        2.87535 -2.58002 -1.29731
        -1.75768 1.37172 4.32612
        -2.55159 -3.10351 0.0606617
        -2.77698 -0.493435 0.962919
        1.5619 0.14362 -0.903269
        8.5697 -3.16528 -0.526614
        -1.28494 -2.64395 3.18482
        -0.517643 -2.51883 -1.93097
        2.21234 -2.87405 -0.386418
        -2.21461 4.88633 -3.82872
        1.20681 -0.996336 0.796472
        1.02758 -4.28125 1.19216
        6.89408 1.44899 2.18846
        -1.03681 2.72784 -1.97997
        -5.79701 3.63614 1.42697
        3.25782 -4.04215 -3.02641
        -5.6835 2.12127 6.13789
        2.99061 -2.52926 7.12946
        -1.40489 -2.25614 2.26019
        -1.43932 -3.11919 6.05812
        2.08379 -1.45228 3.46292
        0.273302 0.346095 -2.38733
        -0.383206 1.14866 0.887612
        2.9737 4.08056 -5.57739
        2.22492 1.01555 5.92544
        3.26445 -0.00833923 1.53874
        -2.58973 -1.73402 2.48232
        0.656514 -3.86904 -2.73545
        -2.53911 -0.699369 2.54401
        5.68811 -0.0310336 2.04384
        0.249935 -0.117711 -0.810638
        -3.29333 1.46989 2.94672
        1.39925 0.0291867 -1.31224
        0.699202 1.93878 -4.42464
        3.62681 4.90975 0.755063
        -3.33315 -4.84699 -4.24575
        0.214715 -3.0551 -6.50632
        0.185079 -2.67457 4.91492
        1.86631 -1.55463 0.328074
        2.4371 -0.568207 4.2371
        3.62942 -3.16845 -3.10548
        -0.219541 -1.81009 4.43253
        4.56417 -1.97881 -1.0499
        1.46224 -2.39585 -4.78566
        -1.33755 2.39832 -5.61877
        0.97684 -3.12577 -5.7211
        2.69728 0.328457 2.08564
        -1.56173 -2.07647 0.0703477
        -0.94633 -1.25506 0.070353
        -1.36968 4.10171 3.84354
        0.978368 0.268189 0.489411
        2.72031 -0.0570896 2.06384
        1.93565 3.34976 1.08762
        -3.77955 -0.183849 3.44743
        2.59654 -3.77445 -5.06285
        4.92233 -0.583858 7.01115
        -0.876174 2.76051 -0.963415
        1.12891 3.88805 -3.66077
        4.61158 -1.68801 -2.13643
        4.42121 6.80147 0.823799
        -1.50684 0.343546 6.36797
        -1.54997 1.36247 -2.33746
        1.85299 4.24087 2.20972
        1.64498 3.19222 2.80433
        -0.271247 1.08626 3.97782
        3.20743 1.84661 -3.03835
        1.39221 -4.21003 -0.58005
        -0.30809 0.632352 -6.25197
        0.389916 2.71841 5.81289
        4.8092 3.11307 -4.3442
        -1.54428 -2.42791 1.36348
        -0.866457 -3.44329 2.88174
        3.596 -6.96856 -1.19817
        2.61392 6.2343 -3.84825
        -0.322676 2.63269 0.264612
        5.72797 4.03622 -0.964465
        3.11355 0.288946 -2.32863
        1.04262 -1.07726 6.05433
        5.24238 -1.99694 0.923772
        -1.4461 6.73129 -1.74714
        2.50295 -1.50386 3.46407
        5.1451 3.67999 -1.6503
        -0.827952 1.99974 1.82603
        5.02696 2.12272 -0.940508
        -2.71019 0.64689 -3.39929
        0.875419 2.69162 -2.57479
        1.80294 -1.5859 4.66806
        3.41507 -5.45846 1.64311
        3.99742 3.50918 1.456
        -0.238504 -1.84927 -1.45638
        1.72644 0.387088 2.08294
        5.51036 -0.549831 -1.52178
        2.28289 0.423897 0.0277997
        1.09398 2.65029 -1.61238
        1.91621 -3.67585 1.23774
        -2.88377 2.05118 -2.68653
        -6.92473 2.29881 -9.19783
        6.02696 1.95101 -2.51204
        3.46344 -0.389898 -6.97206
        -1.74098 -1.69679 4.66772
        -0.424535 -0.613669 -2.4127
        8.65495 -0.467154 -3.60105
        0.928317 7.46482 1.85997
        0.132475 -0.92837 -1.89295
        -0.0204012 0.0333343 -1.19532
        3.31652 3.0772 0.94051
        0.221051 0.487674 -4.00731
        -5.98565 -0.20181 -1.14067
        2.64674 1.24602 2.91916
        0.922753 0.368975 -7.64855
        0.464803 4.3558 -1.34539
        1.40333 0.672865 -0.8717
        -4.80697 1.47567 -3.021
        3.23179 2.43253 -2.31543
        5.21099 -5.60353 -0.0924746
        2.81291 -0.592938 -2.26399
        -4.65397 -8.25241 3.81694
        -2.45759 2.32507 0.228721
        3.55518 -1.39295 2.35697
        2.809 -2.11385 -2.31793
        2.48586 4.46916 -0.721385
        -2.59395 3.27883 -2.05428
        4.19164 -0.365408 -6.63133
        -2.5972 4.75188 0.443095
        -0.167263 0.276801 4.78242
        3.8865 2.34879 -3.44557
        -4.36292 -1.83294 4.82679
        -2.05424 3.41549 -4.10465
        -0.427378 1.72743 5.94954
        0.194879 -2.72197 3.19635
        -0.76857 -0.180379 -1.13892
        4.98346 1.03476 -3.34736
        -2.78311 4.38023 -1.83102
        3.62346 0.852587 -0.229362
        0.373862 0.731587 3.02799
        4.65831 0.444649 2.60736
        3.41131 -1.51963 -3.52934
        -0.272749 2.5277 3.37858
        -0.567512 1.53843 -0.180657
        1.97966 -3.26136 6.60657
        0.230649 0.229156 -0.181394
        0.202658 -1.88369 0.747159
        2.37588 0.34016 0.710618
        -0.64344 -4.44153 0.456828
        1.22071 -1.81406 3.42012
        -1.37032 0.495031 -5.95405
        1.33234 -4.32149 0.324621
        9.84421 -4.61686 -1.78719
        2.50363 -1.83189 -0.88234
        -4.68671 2.48263 7.64504
        0.950499 0.987907 3.85216
        3.52756 0.865596 0.231121
        1.62827 1.37286 1.92384
        -3.58018 1.94817 5.33409
        -2.597 0.0676709 5.73276
        -0.961144 -7.57045 2.28652
        4.65459 -0.106317 -5.27051
        -6.39183 1.37352 -5.9434
        0.840038 -3.41034 -5.90929
        1.89151 0.101279 3.36524
        1.95894 0.68942 3.74939
        5.91639 -2.84184 -1.75611
        -1.56052 1.42124 -1.30551
        5.76 -0.796354 -4.35352
        1.90961 2.84178 3.84934
        1.29157 -3.10362 -0.235586
        0.660029 1.52989 -0.495957
        3.50012 4.85108 -0.454889
        -2.41309 -4.58736 0.0168831
        0.862473 -2.34233 -1.933
        1.04297 0.562946 -3.97074
        2.90471 1.34322 -0.481258
        -0.167895 -5.41993 -0.0647722
        4.65307 2.61473 3.47793
        -3.54144 -0.544089 -1.87994
        3.61904 -1.91015 -1.00672
        2.75511 4.88617 -2.3687
        2.53488 -1.34755 1.57927
        -3.33438 3.74863 1.96645
        -0.237401 -1.56012 -2.83124
        0.1494 -0.162512 -1.24937
        2.47638 -1.51222 1.0482
        1.22258 3.54137 0.877603
        3.19195 -2.04808 0.844362
        1.90884 1.16609 -2.19474
        -2.47533 -1.62519 -0.0831827
        0.648758 2.0328 -3.70891
        4.26199 1.27562 -5.3192
        -0.0637608 6.53528 1.70081
        -2.86222 0.134381 5.05896
        -0.386813 -0.611292 3.7012
        4.53125 -5.2334 6.22129
        -2.15713 2.23025 5.0817
        -0.423994 -0.244492 -1.49269
        3.02051 0.0164356 3.20829
        -5.65234 -0.403908 -0.497336
        2.51849 -2.56518 -1.41506
        -2.51039 3.51597 2.12174
        -0.512529 0.840332 -3.86602
        -0.164168 -3.48683 1.09894
        0.899024 1.69121 3.82553
        0.0425375 0.676197 -4.94948
        3.10484 3.26119 -1.72326
        0.378637 -3.25149 1.52456
        2.59101 -1.97005 -1.98998
        2.1241 0.560292 -2.7287
        7.06335 0.310189 -2.54153
        0.332285 -0.809227 -0.0984704
        1.23314 -4.72059 -3.2819
        -2.08904 -3.15466 -4.76264
        1.36856 -3.52104 0.827258
        0.697153 0.600879 -1.48181
        -4.00094 3.07972 3.24396
        -1.59774 2.54538 0.203358
        -0.57454 -0.466196 2.34059
        -5.23014 -1.04758 -3.45528
        5.89788 -4.49898 -5.08873
        1.38725 -3.5355 2.57613
        1.56998 -3.97217 -3.67158
        -1.57566 -2.24184 0.210203
        0.921204 1.40237 0.398965
        6.61709 3.19982 -1.35513
        0.683518 6.71179 -4.31546
        3.35483 3.20666 3.95311
        0.794645 -2.82203 3.42682
        0.615225 0.363217 1.28675
        2.71613 -3.67424 -1.78895
        2.95455 -4.8327 2.08193
        -2.4928 3.76025 1.96897
        0.220879 0.00889249 -6.92306
        1.69314 6.34695 0.969929
        -8.3207 -4.54576 -1.03878
        3.11195 -5.35184 2.35365
        -0.673353 1.23006 -0.22442
        -0.814524 -2.92715 3.5404
        7.40656 -2.73904 -3.8947
        3.38909 -4.37064 2.93276
        2.37708 0.261777 2.69193
        6.01522 -2.60237 0.890545
        -3.80247 6.53278 4.28894
        -6.82834 -2.9106 3.19308
        5.019 -0.0697751 3.12837
        1.23656 1.59399 1.93605
        0.127353 2.03517 4.78911
        -2.13752 -1.69451 -0.768832
        0.800113 -2.8544 5.28699
        -1.10146 1.81694 0.63231
        4.91089 -2.68462 -3.55649
        -1.34685 0.384533 -0.00165985
        6.72035 2.36569 3.99543
        -0.568064 1.94857 -0.525853
        -7.66513 -1.71226 -0.846831
        -0.498555 4.03484 3.27047
        -2.6405 2.32786 3.43843
        -0.093876 -0.880788 -1.20872
        -2.21618 -0.594219 -1.30782
        2.08822 1.99764 -3.62597
        1.06732 -5.6821 3.54241
        2.09619 -2.4995 -4.14248
        -0.350639 3.15342 -4.69421
        -0.348745 1.07743 2.95981
        3.4383 2.4368 -4.58233
        1.69518 1.02604 -5.99139
        -7.53764 -8.65514 1.26192
        -3.57658 -1.61047 -5.97489
        4.15771 0.521899 -2.23383
        0.5155 1.12484 0.263976
        -1.25416 -2.42287 -1.45313
        2.23786 0.91118 0.942429
        -2.77123 -1.71598 -1.99465
        -3.25444 -4.89741 -3.23794
        0.737523 2.98427 0.331967
        -1.06298 2.55673 0.329886
        -0.827585 0.399586 1.67802
        -1.51278 -4.22212 -1.76328
        2.9735 -1.05069 -0.400295
        7.99719 4.55539 2.84071
        1.26902 -2.24503 -0.944002
        4.98482 -0.984399 2.67885
        3.86593 4.62611 -0.369107
        -1.10353 0.312976 -3.8904
        -0.135519 1.45389 -5.81402
        1.15721 -2.00782 -3.64798
        -0.192772 1.78628 -5.4838
        5.10587 2.94871 2.36607
        1.8801 -3.22673 -0.916995
        -3.04821 9.74406 -0.961292
        -1.39577 3.11893 3.23922
        4.86982 2.71532 -4.80449
        0.721933 1.16665 -4.35617
        -2.55492 -0.56173 0.934539
        -0.497237 -0.840961 4.1037
        4.22052 0.647458 0.294297
        1.52031 2.59056 1.82303
        4.17717 0.35278 -1.74404
        0.909924 -3.54906 2.36753
        -3.4745 -6.07658 -0.228564
        2.1234 -1.17791 -0.566654
        2.76145 -0.182358 -4.28538
        -1.39368 4.50972 -0.0457746
        1.26982 2.4552 1.93826
        -0.770701 -2.15689 -4.18542
        7.45287 1.2498 0.913492
        -5.44385 0.331772 0.959835
        0.463214 -6.13811 0.0464243
        3.45139 -6.59293 0.315383
        -0.696741 -5.72408 1.61582
        -1.56554 4.94272 2.55432
        1.24403 2.98876 -4.00587
        -1.9884 -2.79307 0.935338
        1.23409 -0.598671 -1.55508
        -3.50377 -0.0140366 -4.7897
        -1.71534 -0.660481 0.343951
        -2.12289 -4.50286 1.90448
        -2.16578 -0.504011 1.40106
        1.39693 4.65744 1.78689
        -0.0951987 2.29554 -3.17922
        -3.60865 1.7197 -0.839682
        3.65339 0.863553 -3.876
        4.7609 -1.69263 0.807545
        -1.30348 0.385344 -0.0893752
        1.67495 -1.67281 -0.0142642
        -4.64777 1.2596 1.64061
        3.06329 -1.15456 -2.06244
        1.09987 1.75208 -1.57613
        -0.588032 1.05886 -0.441179
        4.49916 -1.25501 -2.64989
        1.8806 1.79228 -2.7109
        2.33157 -5.19073 -1.95242
        1.36263 1.51698 -2.33155
        1.03293 -0.662289 -1.10401
        6.02915 -0.654966 -0.640076
        -3.58482 0.886317 -2.70526
        3.58908 -2.84286 -1.6262
        4.55551 0.218067 -2.32472
        4.01599 4.49078 -0.659123
        -0.004234 3.54172 -0.0732231
        -0.776883 -1.3804 -0.243699
        -2.25658 4.12025 4.65671
        3.43143 -0.0833022 0.545517
        1.91804 -1.15274 1.89088
        -2.0896 -1.47059 -2.97343
        -2.42561 -5.14367 -0.34642
        -1.96923 3.78666 3.87876
        -0.962776 0.0544832 0.994239
        -1.70474 -2.13254 -0.775096
        -1.56595 -0.156457 -2.9929
        -5.11322 2.51142 -0.742876
        0.209753 -3.86373 -1.02302
        -1.01325 1.31284 -1.43047
        -0.716019 2.09783 -5.91388
        0.680408 -0.958566 -0.657373
        -0.144849 -1.58318 0.525292
        1.50392 -5.50694 1.87181
        0.853967 2.50787 -4.52048
        -3.70616 -2.81087 0.0417557
        0.470104 -0.900658 2.80633
        2.24142 0.668159 3.02416
        -2.13966 0.0589016 3.07732
        3.65986 -0.609711 0.497727
        -3.29881 -4.06048 3.34439
        -1.50232 1.50903 -3.1127
        -5.94364 -2.9421 0.0326985
        1.96189 1.77615 -2.35672
        2.28941 1.97473 -6.83724
        5.72882 0.206912 -0.450809
        -3.48819 0.42943 -1.01616
        0.322982 -1.07781 1.35801
        7.43216 -1.62506 -3.1631
        0.584509 3.68428 -4.1701
        -0.302763 -1.06396 1.49096
        -3.01827 1.04228 -2.29259
        2.13407 0.476611 0.608686
        -2.67626 1.08598 1.20018
        0.528231 -2.56098 1.66576
        0.271745 1.38417 -5.23673
        -5.30112 -0.850831 -4.03888
        -1.16526 -3.81653 3.33007
        -3.11153 2.88173 -0.285857
        -1.80142 -1.08512 2.54824
        -0.407932 1.77124 0.249241
        0.0604201 4.45266 -5.8345
        3.81838 -4.13449 -1.05109
        -1.87858 -0.565769 3.18324
        -1.18937 2.63536 1.6125
        0.0249159 -1.1535 6.98955
        -4.11038 3.4872 -2.30592
        -1.42569 1.36798 1.32796
        5.93796 -2.7438 1.29475
        -2.9013 1.37839 2.60038
        -2.75459 2.24483 -7.1028
        1.04017 -0.894108 0.021939
        0.625802 3.02937 3.22632
        -0.727253 1.32056 -0.452645
        1.29017 -3.00191 -1.21087
        0.920161 -2.30102 2.97475
        2.76113 -1.98205 -2.77309
        1.35507 0.530477 -1.26223
        -0.140539 1.20658 -3.00812
        -1.79703 -2.89087 -2.66943
        3.26401 -0.619527 -0.609841
        4.16105 -3.04674 -2.08539
        2.82259 3.16689 -0.911745
        -2.02801 1.8066 -1.93989
        -2.78262 2.58229 0.766015
        0.659088 1.05294 1.68409
        0.272768 -0.081023 2.40623
        -0.970557 -1.10128 -0.95707
        -4.79748 2.62585 -0.179427
        -2.32719 -1.67467 0.173897
        3.416 -0.0399149 -3.84463
        -0.914082 2.83298 -3.3677
        2.04787 -0.66332 0.239971
        2.68313 -3.86745 -1.44431
        -3.34969 -3.54869 0.212556
        0.106459 -1.49537 -2.54464
        -0.233226 4.88036 -5.8855
        4.86322 0.0977056 -5.63914
        -1.93817 -2.16564 -0.551778
        0.889452 5.28852 2.20681
        -2.51733 3.77529 -1.31917
        0.958363 -2.34988 -1.41128
        1.75797 -1.41554 -2.53773
        -0.351227 -3.00426 -1.0953
        0.913392 -0.0427716 2.07179
        0.463338 -1.07468 -2.72048
        2.72093 -0.0359516 1.78232
        0.366837 -7.97877 1.6938
        2.10359 0.350772 1.44891
        3.98918 -6.89392 3.94924
        -1.52368 2.08486 -0.0726213
        0.331581 2.50731 1.11209
        2.99825 -1.86263 -3.9059
        -1.24924 -5.76091 -6.08854
        -2.8529 3.21013 -1.14946
        -1.61591 1.38633 0.479244
        -2.53786 -0.754403 1.67621
        1.64939 -4.78993 -1.85955
        -1.43595 1.72616 -1.30733
        4.4552 -0.294961 -3.08048
        1.2329 -3.49664 -3.36597
        1.20742 -4.9597 3.03994
        -1.19776 -0.700341 -4.03593
        -1.31719 0.952524 1.00145
        1.44298 0.804305 -1.85915
        0.12765 -1.34031 -0.407541
        -2.67602 -0.912774 -1.25572
        -5.5765 -2.29861 -2.11477
        -3.91774 -2.9159 0.312418
        -1.01819 3.77426 -1.52912
        0.624982 3.71955 -1.12083
        -5.37832 0.930696 0.153725
        -2.22506 2.01207 2.60605
        1.87245 -3.99214 -3.39008
        -3.82569 -2.75218 -2.39496
        4.45637 0.887346 0.0236327
        0.215408 1.65727 2.8492
        0.770966 2.6692 -1.62403
        3.5567 0.909201 1.76111
        5.53627 2.68911 2.95817
        -4.05471 2.4943 0.346581
        3.04194 -0.297461 -2.05172
        -2.7651 -1.07143 -1.42262
        -0.721088 -2.15616 3.9505
        -1.23275 1.8981 1.84068
        2.44151 -1.37229 -0.317913
        6.41898 1.25224 0.81038
        1.09976 3.59361 1.37175
        -0.71953 -2.26208 -1.41302
        -2.16734 3.65087 -0.410327
        0.0534747 2.02691 -2.14177
        -1.23142 -0.76543 -0.531873
        -1.75955 -2.41838 2.58852
        4.20113 1.32565 -0.956563
        -0.553341 -0.132891 0.11654
        0.946083 1.26037 1.94263
        3.42602 1.40658 -0.0815497
        -0.801388 -1.27077 2.63116
        -2.01637 1.61252 -2.2157
        4.76911 2.0742 -2.27412
        3.5002 2.09039 -1.07365
        -1.92845 -0.410416 4.36381
        1.47142 1.40335 -1.77253
        2.1877 -0.588862 -3.27701
        -1.42662 1.64934 -1.87193
        0.809519 2.07946 -4.151
        -0.519014 -1.61872 0.86023
        -2.96915 2.44034 -2.02095
        -3.44172 0.798829 1.18483
        5.60838 0.561615 -0.611639
        -1.71845 1.73141 -3.34843
        0.189498 -1.98412 1.73048
        0.309851 -0.820276 2.83948
        -0.566521 3.79297 3.95385
        3.17174 -0.976802 0.840289
        -1.07184 -0.214065 1.43428
        0.723886 0.776104 5.07032
        -4.18063 -1.6541 3.53657
        3.62286 2.85625 0.799484
        5.0602 -2.77454 2.96456
        -0.63576 -1.6593 4.78637
        3.78421 2.84347 -1.28044
        -0.0818556 -2.82233 3.81147
        3.45792 1.23665 -2.63456
        -2.14281 2.77876 -1.26468
        -3.39575 -2.31612 2.50407
        3.04672 6.57324 -1.67726
        -4.09635 -5.07385 -2.06823
        1.38726 0.478488 -2.85575
        2.05872 -1.05559 0.163648
        3.14494 1.16151 -0.420084
        -3.30931 -0.139532 4.24429
        4.24128 -1.38691 0.264098
        1.17704 0.175735 -0.939829
        0.0711053 -1.1304 -0.75963
        -0.58454 -4.66275 4.26513
        5.76791 -1.75598 -3.39701
        1.93316 0.176714 2.50399
        -0.875623 -2.40921 5.49923
        -0.714596 -2.8461 1.01598
        1.39852 -1.9289 -3.68229
        -2.06918 2.44387 5.51698
        0.24567 1.16349 1.10499
        0.656793 -1.96385 1.40774
        -2.53597 -1.93185 -0.743124
        -3.38411 -0.935623 2.3702
        2.66338 -1.48162 0.0659191
        1.19638 -2.88647 -2.90076
        -2.03157 1.49782 -6.12837
        4.66582 -0.5069 2.50402
        -1.06623 -3.53852 2.20775
        2.2061 1.59096 -0.476352
        1.77447 -1.20953 -4.25388
        -0.310612 -1.76347 1.06782
        -0.508038 -1.57124 3.20824
        0.23495 -3.17836 2.76177
        0.693781 -6.74203 -6.61313
        -2.54631 3.05591 0.17111
        1.81909 1.2197 2.88523
        0.189375 1.79409 3.68477
        0.621383 3.15395 -0.524705
        -1.48668 0.0558263 3.06938
        -1.80007 -1.11309 2.01992
        -0.297792 -3.69294 -5.57353
        5.8498 1.6904 -2.89661
        -1.73593 -0.0656387 -0.365406
        -4.10015 -1.01962 2.83869
        -0.78531 5.56497 -0.171995
        -2.02412 -4.4267 0.664943
        -0.154325 5.04145 2.74149
        -1.4315 1.12772 -2.67496
        -0.707753 1.36445 -1.81998
        0.0567502 -1.77779 -0.452342
        3.99513 5.24042 -1.97401
        -1.27365 0.712674 1.05159
        1.9867 3.27808 1.35122
        -0.745346 2.1032 -0.435302
        3.59327 0.0563024 -3.68682
        -5.22055 2.25182 4.05521
        4.51421 -0.795931 -3.38224
        3.16378 -0.848937 -1.46091
        0.533666 -5.51207 -3.3206
        -0.264967 1.91668 -5.13064
        0.490504 -1.04139 2.71479
        0.405593 -2.27633 3.26089
        -1.19697 -0.34671 4.34349
        1.60303 -3.26682 -3.10372
        0.711711 5.92065 -0.576695
        -0.929328 -0.495501 -0.775692
        0.86927 3.64934 -1.28085
        1.62973 -3.99566 -1.77743
        6.44676 -5.33966 -1.1012
        -2.34549 1.17837 0.202302
        5.92791 -2.18799 2.22355
        -3.07788 -1.18057 0.480548
        -5.02987 -2.53509 -2.15937
        -2.66575 -0.422112 2.84973
        2.68692 0.979144 1.36819
        2.46806 -5.11116 0.826328
        0.0542392 0.121691 1.88435
        -0.833818 -1.26761 -1.55958
        -0.28235 1.84886 -0.044037
        1.20732 -0.534594 1.51758
        -0.120892 3.65719 0.433136
        0.486438 2.23353 -3.19105
        1.99018 1.99077 0.108953
        -0.749055 0.626904 1.31619
        1.0631 -2.84482 0.357891
        -1.0898 0.570725 1.85479
        4.04527 0.945196 1.3315
        -0.619814 -1.59586 -2.48448
        0.667406 0.851274 -3.60713
        -2.84447 4.35192 -2.50213
        0.154413 1.51424 -4.3894
        5.9059 -7.31621 0.672152
        -0.790305 -1.1152 -3.19869
        5.546 0.933545 -3.79696
        3.03894 -1.42645 -3.49998
        0.259745 -2.18735 -2.89169
        -4.8781 -1.0049 0.647341
        2.32801 -0.874284 0.837513
        -5.55652 2.1856 -5.66126
        5.0367 -2.96647 -0.170868
        -1.49015 1.72686 -1.44669
        2.09858 -1.77044 -0.291645
        -3.06555 4.98335 1.69944
        1.74634 2.75186 -0.54705
        2.84469 1.48441 -4.694
        3.36194 -1.23318 -0.843057
        -1.26686 0.20236 0.801423
        -5.25437 -3.19247 -0.104812
        2.63323 -3.44548 1.97007
        5.06197 -5.67482 -1.34798
        5.84002 -1.41358 -1.2361
        -1.00457 3.84024 -1.27008
        -2.72478 2.64868 -0.723485
        -5.96463 1.6055 -2.98617
        1.92941 -5.82369 8.23584
        -2.14728 4.04666 0.104376
        -5.03301 3.31816 2.21167
        3.0156 -0.130518 -3.08003
        3.46332 -9.10456 -2.4407
        2.38455 4.08268 -1.09479
        -1.13318 -0.0379929 0.369049
        -1.80083 4.25599 4.16532
        0.653126 1.05661 -1.67491
        -3.80232 -1.60588 2.01686
        -1.24238 -3.37904 -4.5324
        3.39452 0.964292 -0.917755
        -1.58713 0.713659 4.71916
        -1.81244 -1.82785 0.209125
        4.9233 -0.734828 1.5954
        2.06249 -2.6476 0.252806
        -1.95477 1.3796 -0.196282
        -0.674252 -0.699858 1.81005
        2.44328 -0.0175894 3.7337
        1.97024 -0.503265 -2.77682
        -1.09169 -1.70665 -1.13624
        3.62528 -1.71011 -0.740218
        2.11356 -2.1717 0.954862
        1.91648 -2.60615 2.34897
        -3.50302 0.685796 3.21852
        4.11765 2.90058 -2.72057
        0.940289 2.66916 1.8205
        -0.055277 -3.57532 0.184625
        0.129002 -0.556879 -0.0899975
        0.801134 -1.43863 -1.00374
        -0.00240433 2.08416 -1.40665
        3.39507 -3.65528 -0.482692
        -2.58886 -3.22031 -2.89796
        2.27298 -0.659065 5.71672
        -3.59465 3.15079 0.10588
        5.28871 -0.457651 -4.94318
        2.67861 -5.60128 3.44234
        3.70981 0.935576 -2.29357
        1.19333 -2.163 0.580829
        -3.01216 -0.115586 -3.8133
        3.18663 -4.82422 2.16054
        5.1597 -3.47956 -1.36299
        -3.70408 -2.10581 0.523631
        0.224556 0.539837 3.59689
        -0.227421 -4.16549 0.110105
        0.49217 3.37944 1.56383
        5.54998 -6.65649 3.6952
        0.701217 -0.831918 -3.89435
        8.76092 -8.75724 1.47609
        -1.31108 1.37162 -4.68585
        -0.879557 2.40875 1.02075
        0.616118 0.309041 0.237282
        0.369681 -2.27477 0.812288
        1.16028 -7.79504 -1.24116
        -2.52596 -0.688307 -5.98336
        -1.61783 -2.19403 3.07343
        0.70133 -1.95991 -2.61054
        4.33547 3.67401 8.03272
        1.89587 -1.71435 -4.11735
        -0.598043 -1.62596 -3.6466
        -4.04574 1.00437 -1.33666
        3.8653 0.127226 -0.962998
        -4.67829 -1.32043 -1.97899
        1.02419 3.25062 0.805123
        3.87649 2.25097 -3.08211
        2.74968 -0.528365 0.609547
        -0.226252 -1.4753 -1.98522
        -2.28858 -0.411283 2.3891
        -1.48576 -2.4678 -3.82239
        4.29946 -1.08488 4.36596
        -1.60668 -3.9596 2.10945
        1.24289 -0.348636 -4.16218
        1.21453 1.49941 1.28029
        -1.97366 -1.82018 0.8146
        -0.461383 3.71497 -4.70741
        2.33878 -0.206731 -1.87741
        -7.40382 -0.927725 4.19373
        -0.528203 3.61689 1.69896
        1.10255 -1.1776 2.18246
        -0.449207 1.29433 -0.219138
        -0.526643 -1.52155 -0.090448
        -1.87304 4.9667 -1.76809
        -1.08946 -1.87558 0.201573
        1.35699 -7.04343 -0.614126
        -0.856403 -3.52914 -1.29791
        4.47157 3.42581 -4.38114
        3.121 1.07498 3.8273
        0.221011 -4.7264 -4.24925
        2.35691 0.292106 -0.457192
        2.67248 2.41766 0.0396735
        0.154665 0.202279 3.31042
        -2.05719 1.04017 -0.185332
        2.25098 2.86111 5.02837
        1.48801 -2.70153 -3.75397
        -2.34098 -2.15995 -2.63449
        -3.84488 1.98543 -2.19235
        0.0479215 1.00175 -1.20641
        -2.90555 1.42098 -0.727922
        -1.10529 -1.8279 -6.65399
        3.69662 -2.59567 6.73562
        3.97186 3.5415 -0.739652
        -3.82195 -0.859384 -2.59245
        3.1428 -2.08995 -1.99211
        0.987774 0.567308 1.25543
        9.2475 -4.89016 1.01919
        -0.0535956 -2.10071 -3.71168
        1.75966 1.25777 0.312286
        0.730168 -0.483762 -5.31206
        3.94902 5.72925 -1.14184
        0.0517505 3.03552 -0.86256
        -3.74827 0.334574 0.791575
        -3.17298 2.99436 1.5712
        1.23318 -5.87143 -4.35315
        -1.61382 0.970883 0.57335
        3.67192 1.57213 5.05865
        2.86793 2.47313 -0.210283
        2.26396 -0.344744 1.94764
        -3.63805 2.10252 0.147559
        -0.0826907 -2.28389 -4.09706
        0.941661 -0.668728 -2.11928
        -2.36151 2.73411 -1.23747
        -1.58514 0.367837 -1.10666
        -1.19144 -4.35854 -2.06448
        4.08232 -0.896186 1.5306
        4.66153 0.596217 1.19388
        3.81473 1.01869 -2.65593
        -1.69396 -0.907616 6.02315
        -4.0596 0.0851161 5.41419
        1.4368 2.48213 0.281871
        2.54949 -1.01205 0.323778
        5.29499 -2.56361 1.66126
        -0.163087 2.42071 0.947698
        -2.67287 -1.71848 -4.5757
        -4.15601 -0.963633 -3.65311
        4.3694 -2.68416 -0.814524
        -2.91946 0.156724 -2.59438
        3.42255 3.45478 -5.09576
        2.63497 -10.3836 -1.11842
        0.995475 -0.927786 0.924004
        1.2577 -3.35615 -1.16593
        2.30699 -1.33588 -1.2036
        4.72009 -0.241795 -1.17007
        2.14057 1.81568 2.21084
        0.597001 3.62791 -0.264649
        2.94816 0.972873 -1.03293
        1.54124 2.05433 3.97031
        2.43228 1.92693 -1.77089
        -1.06949 0.494316 -1.48483
        3.40125 -2.62848 -2.30015
        -3.57503 4.24802 1.54662
        1.33603 3.65609 -1.96869
        0.106327 2.67142 -3.5562
        -5.78789 0.236374 -6.8132
        -3.51068 -1.43412 -0.298296
        7.17797 5.30961 -6.81039
        0.691267 0.477662 -1.19157
        0.844731 -3.16817 -2.88941
        -4.07586 0.945093 -2.05215
        -1.8334 1.03723 6.03563
        1.9141 -3.73883 3.70175
        4.25162 1.62405 -2.84773
        2.28171 2.60492 -4.3012
        4.5925 1.02768 3.22838
        2.30502 -0.673965 -0.415894