<?xml version="1.0" encoding="UTF-8" standalone="no" ?>
<VTKFile byte_order="LittleEndian" type="UnstructuredGrid" version="0.1">
  <UnstructuredGrid>
    <Piece NumberOfCells="0" NumberOfPoints="15094">
      <PointData>
        <DataArray Name="velocities" NumberOfComponents="3" format="ascii" type="Float32">
        -4.38623 -6.48803 -2.93706
        1.32844 -2.83512 3.81295
        4.21509 -3.00285 -4.5421
        -2.59405 -4.63697 4.63308
        2.02321 -1.41247 -0.807964
        -2.74988 -5.28665 0.309534
        -0.554234 4.71526 -5.63824
        4.58357 -5.60279 3.7346
        -1.10559 2.93759 -0.0582384
        -3.70921 3.17236 -4.66029
        4.44681 -5.26353 0.933093
        -7.06267 -3.37351 -2.04786
        -8.21366 -0.499549 0.140504
        2.34716 -2.24464 3.72581
        2.43666 4.79202 -6.02759
        -4.70167 -1.3204 -0.340706
        1.97086 -0.388557 -0.35542
        1.98336 1.49996 0.34711
        -4.63301 -3.4028 1.26512
        1.61325 3.99617 -2.40522
        1.22811 2.28679 -0.85387
        2.13497 3.65469 -0.0362005
        -4.04338 0.0438864 1.44611
        -4.8857 1.50375 1.9011
        1.92397 -0.413811 2.17171
        5.1499 7.85413 4.35024
        0.3628 1.06827 -2.54782
        -1.77865 -0.539559 -1.73088
        1.06246 -5.67356 2.23331
        3.29124 2.952 -3.25923
        1.69645 1.18295 0.500119
        2.53577 0.13082 0.332678
        -1.15844 -1.64254 -2.79372
        2.29997 3.66808 -1.26153
        -2.51369 4.3585 0.0974716
        1.4248 1.76563 2.05376
        -7.08873 -1.77681 1.38046
        1.20457 0.661221 -5.8854
        1.72275 -2.95504 2.84659
        3.72078 -7.41002 7.5027
        -4.60754 3.47335 -2.07503
        0.770364 -0.00882022 -8.41617
        -0.670411 2.14785 0.129572
        -2.2142 1.51134 -2.18032
        6.44855 -4.05214 -2.86544
        -5.91977 -1.93279 2.25446
        0.219784 4.53961 0.0364501
        3.76513 -1.93144 -0.577017
        1.32499 9.23192 -0.288352
        -5.36857 -2.68917 -1.04344
        -7.11149 1.67027 -4.91949
        4.38341 5.84958 -0.0424475
        2.81865 -5.25036 0.683839
        0.0130712 -6.51119 -1.8805
        -0.397903 3.75466 0.563934
        0.916093 3.17536 -2.15268
        -4.78239 -1.28416 6.71103
        -1.97368 0.108093 -6.3162
        3.74544 -3.19376 0.607207
        -2.73653 -6.17326 1.18965
        6.40899 0.136521 8.5236
        -8.79427 -2.43416 -0.0191909
        0.176094 1.26061 3.64581
        -3.69058 -3.41161 4.69285
        -4.13241 3.55936 -4.03395
        1.24955 5.15548 -2.52959
        -2.27209 3.41131 1.98134
        -1.02228 1.18961 2.78807
        5.53423 -1.35445 -4.17951
        7.82027 -4.15395 -0.602021
        7.88155 -1.0615 -3.12707
        0.00285896 1.81962 5.54166
        2.63596 -1.67347 4.17774
        2.14235 4.06718 -3.4192
        0.0148889 5.77204 1.00809
        3.26298 3.09863 1.40858
        4.41179 -2.16645 2.82309
        1.21227 4.0283 2.54194
        3.12471 -5.79584 1.5396
        -4.1642 -1.597 4.41121
        5.22496 -2.23609 2.01151
        -0.448633 -2.76227 5.19028
        8.15442 -2.19474 1.75311
        1.42697 -4.59003 -4.86624
        0.12534 -0.351682 1.86246
        6.22746 -0.529942 4.57004
        2.6733 5.72797 6.01643
        1.83349 0.414733 0.704829
        -2.27179 0.0493076 -5.03099
        2.26684 -0.57318 -10.1243
        8.26729 -0.604159 -0.621424
        1.73116 0.955256 -2.78852
        0.0478202 3.46985 2.10367
        -2.00496 3.47672 0.923953
        2.15182 2.40144 0.497727
        -3.01464 -2.01073 4.85195
        -0.0101238 1.42051 -5.06232
        1.01726 0.746708 -7.39606
        0.0169991 -2.65118 -0.941157
        1.48177 -2.84031 1.02831
        1.64978 -1.92987 2.92607
        -2.5716 4.3399 1.94526
        -0.436112 -1.08623 5.79297
        0.957148 2.50075 -2.52873
        -5.69377 1.79103 -3.50017
        2.5596 -4.23535 -1.66186
        5.40406 -0.6584 -6.36339
        0.46512 1.05539 1.52276
        1.65169 0.00943875 -0.935969
        -3.36002 1.7219 -0.407332
        6.99314 -0.193197 0.545193
        2.85828 0.967227 -0.373558
        2.67523 4.26354 -0.203464
        0.793113 5.80467 -3.84544
        2.45651 3.43772 3.05678
        1.73432 0.752029 0.160445
        1.837 2.84436 3.60175
        2.70163 -2.32131 -4.82848
        1.88832 -6.21732 3.19077
        -1.80188 1.90145 -0.305328
        -2.26227 4.93667 1.38417
        0.436915 6.14766 -0.491693
        1.84962 -1.52638 1.69968
        3.26084 -1.48299 -1.4414
        -3.54775 -0.620935 0.0505111
        2.1189 2.0462 -4.72736
        5.2331 0.312692 0.313819
        1.25491 -0.79893 -0.87505
        1.06138 2.00765 2.64955
        -1.2013 2.19104 0.151553
        3.53335 1.85473 0.403462
        1.28434 -2.85928 -2.09229
        -3.55535 -0.657931 1.70169
        -0.188849 -3.02855 -5.62911
        -3.48649 2.26181 -5.53218
        1.79611 3.08164 -5.78387
        0.889897 -2.5099 -2.64009
        -0.938862 -3.99762 -1.58582
        -1.84508 -2.11401 -0.00944755
        -1.69368 0.839801 2.46955
        4.87471 -3.88845 0.238815
        2.87488 -3.01542 1.92117
        2.98603 -0.598175 -3.50935
        -1.25914 1.1771 4.22446
        -6.29774 3.4413 -3.13844
        1.72407 -3.42881 -2.38923
        2.69894 0.275613 -2.69783
        1.68945 5.15724 2.77228
        4.41273 5.29045 -0.105251
        2.99732 -1.72053 -4.25374
        -0.379644 1.37477 0.319637
        3.25232 2.15502 0.863358
        1.8164 1.18444 -3.13687
        -1.06448 -2.41411 -0.086277
        -0.695188 3.27559 2.5553
        -1.16961 1.25173 -4.93385
        -0.594866 -0.008906 4.31396
        -0.943092 -2.33729 3.14315
        9.4647 -2.01657 -2.7211
        -0.675053 -1.00598 0.964995
        2.43204 2.01962 2.70935
        0.396182 1.60741 -2.31339
        2.02724 -4.95128 -1.41557
        -0.0256917 -1.85988 4.53213
        -4.11922 -1.95636 -0.0829146
        -0.853379 -5.78162 -4.20706
        -2.01399 7.275 3.3077
        4.33232 6.35758 -0.526081
        2.54947 4.48698 -1.85667
        0.728823 1.51099 -0.921366
        2.50693 -0.181482 -0.160886
        -1.20628 3.34919 5.16877
        3.97993 4.54826 3.17997
        4.03329 1.88022 2.14903
        6.5521 1.24427 -2.93334
        2.79868 6.7367 -0.521748
        3.69183 0.923201 0.892543
        -0.390294 -0.469503 2.10408
        1.06475 1.40601 -1.94623
        1.13149 3.49206 0.988814
        -1.89954 -2.60741 -3.40896
        6.27092 -0.27598 -1.25011
        0.618259 -1.20713 2.7557
        2.1553 -3.27548 5.42229
        3.13688 -1.12424 -2.21144
        2.2004 6.35891 -1.60552
        2.86718 -4.08414 -4.83356
        -3.60299 1.25472 1.87396
        5.60262 1.19843 -0.233873
        0.170921 -1.07398 0.579098
        0.30836 0.536892 -0.702873
        4.58824 -5.29964 -0.547229
        -4.38792 -0.80876 -0.635735
        -0.280742 -3.15483 1.03537
        0.278401 0.378509 -2.52021
        3.28071 5.32145 4.11402
        -3.04433 3.94027 0.717889
        -7.41987 2.63148 1.1262
        -1.64099 0.518895 -0.42778
        -4.11207 -1.71145 0.866195
        -0.989333 -0.33584 -1.35039
        1.89569 2.89533 3.42704
        0.995119 3.87649 -6.025
        0.909968 -1.53384 1.42838
        2.11674 -3.45463 -3.56408
        4.06079 -2.1087 2.11325
        0.724413 3.93215 -3.00638
        0.319634 0.0507665 -2.97271
        -1.2003 1.5856 -2.80372
        6.0005 -1.06589 -1.26344
        3.88545 -0.998945 -3.70596
        -6.95385 3.58492 7.6123
        3.38625 0.496372 -3.25905
        1.52904 -3.44649 -4.26659
        4.2019 -0.0443477 1.41549
        2.0894 4.0165 -1.87934
        -0.73244 -4.40873 2.58649
        5.4481 2.40669 4.6213
        -2.00299 -2.04219 -1.05118
        -1.9951 4.01019 -7.77599
        3.54424 -4.74608 3.16803
        2.64939 -2.87003 0.305511
        -0.111446 0.556708 -0.784577
        -4.81271 -1.4004 3.63541
        -2.18296 3.49456 3.11076
        -3.82623 -0.275876 -3.79555
        2.65667 3.67529 2.27858
        2.43546 -1.55943 -2.89003
        2.24805 2.48801 6.93583
        -4.05189 -3.02655 1.79848
        4.26326 -5.55005 3.32746
        -7.63001 0.824101 3.55174
        6.69676 -1.40067 -2.64113
        -0.529327 -1.90762 2.22337
        5.37498 5.14211 5.62118
        -3.62786 2.2643 2.68203
        -2.13009 2.04828 3.20323
        -6.29823 1.96486 0.269405
        2.81797 -1.72733 -4.8548
        3.66922 2.92646 -1.15806
        -1.27269 -1.82769 -2.74344
        3.41979 2.48052 4.26857
        -1.6333 3.51461 -2.33087
        6.00667 3.12309 2.04285
        1.17124 -2.38433 4.96663
        2.68583 1.50151 3.09209
        2.95214 2.12405 -1.71206
        0.632963 4.73059 -0.105425
        -1.46421 8.93392 10.0987
        -1.06538 8.0947 -4.60034
        2.76514 -3.00048 2.99261
        -1.79451 2.13006 3.37751
        -1.53411 -4.55609 1.10814
        3.62992 1.50732 -2.52588
        -1.13197 0.417803 3.03869
        -3.82307 6.68676 0.745905
        3.9252 -3.78493 -0.0845065
        -4.63355 3.61337 0.154285
        5.36229 2.77411 2.57583
        3.48309 0.0742381 1.31841
        4.25268 1.27076 4.08711
        3.76109 -2.89766 0.425253
        4.22284 -6.25514 0.94619
        4.37246 -2.05499 3.24705
        0.0950076 -0.313846 -1.5457
        0.132211 4.73202 3.23436
        -3.55334 -3.12349 5.19804
        0.734704 2.41876 1.94685
        -1.7681 -4.65741 0.0159711
        0.267582 0.028307 -2.22431
        9.75428 -1.60665 -1.19121
        0.54732 3.8695 5.60954
        -2.95433 2.60502 4.49864
        2.46881 0.481681 -2.93803
        -1.24595 0.42973 -3.76236
        0.792779 1.1675 -0.0762132
        2.83464 -2.8301 -1.02608
        1.18206 4.36616 -2.23079
        5.57528 -5.44497 -2.28369
        2.73447 -4.49566 2.50506
        6.14639 8.61013 3.24361
        0.807294 -2.8854 5.31887
        4.48795 -1.83235 -1.16429
        0.981361 -1.4705 1.21923
        2.23431 3.89806 4.54974
        2.2072 2.72708 3.18557
        -3.87928 0.7662 0.06004
        0.0466617 0.451014 5.10298
        5.03281 -0.123023 0.522919
        7.19824 -1.00389 1.66783
        -0.87546 -2.13082 -0.214734
        -1.64301 -5.23249 -4.36147
        -0.227767 0.393332 -2.18618
        -0.654088 0.297879 6.94111
        -3.08592 0.371511 -1.89587
        3.19453 4.21138 -2.43025
        -3.34855 -0.344354 -1.68062
        7.43108 -0.0522847 0.174629
        0.889943 -1.71741 4.45376
        3.24861 1.46777 5.19724
        2.12936 -2.63652 -0.748711
        -1.05497 3.08576 1.24125
        0.244496 4.53763 -1.72288
        -0.799923 5.67767 0.531917
        -0.520151 -5.31327 6.87586
        -4.10695 4.57538 1.11339
        -1.89888 -0.196763 -1.53156
        3.18473 -2.12325 -0.928026
        1.80017 -6.74208 -0.837831
        2.21233 2.71404 -4.36787
        1.74389 -2.58363 -3.8541
        0.228684 1.40667 3.55128
        5.71955 3.34537 0.631279
        1.42414 1.12012 1.1498
        -1.94289 4.0181 2.35284
        0.712801 0.500028 1.25951
        -0.823796 0.866724 1.6131
        -3.09847 1.78065 -4.76311
        3.10893 2.57345 -1.11701
        -4.30172 1.69156 11.1875
        -4.10873 2.04449 -0.937781
        0.478712 -2.41978 -0.857517
        -2.19802 3.77123 1.57681
        3.45891 6.92788 4.34815
        0.759125 1.80627 -4.95179
        5.09231 1.88923 -2.57313
        3.48578 -0.217434 0.475848
        5.24315 -1.42754 3.81187
        5.1912 4.04373 -2.81582
        -2.77084 -0.626805 3.78447
        0.885185 5.05762 -0.483118
        5.89462 -2.96994 6.26031
        7.45232 2.18864 -1.60611
        0.365552 -4.34351 -3.66807
        0.132882 -0.712954 -3.38451
        1.78232 -1.67837 -3.57042
        6.50274 -2.44039 0.891907
        1.72233 -0.490646 3.29587
        2.09763 1.30682 -1.47508
        7.08613 4.98865 2.50163
        1.48461 -3.63765 6.56277
        1.55956 -3.23027 1.46748
        0.649515 1.09491 -0.719825
        -2.13533 -4.70606 -0.00412664
        -0.546892 2.78079 1.07162
        2.03967 -0.454684 -7.66011
        3.92815 0.5976 6.70962
        -2.43108 1.57549 -0.775482
        0.822669 2.76947 4.52191
        -0.807129 5.08764 -0.189294
        3.47452 0.0557787 6.26468
        5.08273 5.61146 -0.170365
        -2.15843 3.09356 -3.98041
        -0.296857 -0.320752 2.18328
        -1.20319 4.41378 -1.08521
        3.80585 -3.62617 4.2655
        -4.77034 -0.611091 0.248689
        0.500586 1.26389 1.10942
        -5.24623 1.11076 -3.18827
        -0.291114 3.83987 -4.21389
        0.934335 -2.76471 3.53197
        -3.86773 -1.22903 5.09595
        2.67905 10.1418 -0.430948
        1.28052 1.84646 -1.45832
        1.35541 2.14511 3.22966
        -3.70769 -1.76722 2.23338
        -2.18653 -2.04154 0.619174
        -0.911005 5.01721 -2.06302
        0.226905 -2.15407 3.21198
        2.0869 2.14368 1.37139
        0.0695726 -0.356815 3.17371
        0.540995 -3.30358 -1.76361
        -0.163428 7.21199 -1.04129
        5.7186 0.446237 0.918128
        -0.801536 -4.16128 0.633549
        -3.73042 0.439887 -1.11668
        3.35794 2.68314 0.24999
        -3.05176 0.402468 -0.469134
        -0.732064 -0.95229 6.59905
        -2.61181 7.11332 0.0341235
        -3.44385 1.4138 -0.013996
        -0.863919 -5.52393 -0.202729
        5.2199 0.24449 -2.89122
        1.06362 1.72731 2.27602
        -3.36288 6.02947 4.60721
        2.58255 0.368156 4.58927
        4.54346 2.49796 -2.26218
        -0.997091 2.80587 0.859811
        5.82804 2.05079 0.497593
        -4.64153 0.697178 0.0383351
        5.29338 -5.68705 -7.13843
        4.01385 0.310075 3.1533
        3.44101 2.22781 0.423849
        0.335279 -5.39229 1.70402
        -4.82497 2.21966 1.93532
        3.30205 -2.45169 -1.96057
        -0.554028 -3.54573 -0.250496
        0.679155 -2.07177 -2.17012
        0.314634 -2.99176 3.69992
        0.506368 -0.534373 1.75213
        -3.56206 -5.09918 3.89771
        -0.92582 4.29277 -2.85135
        1.13408 0.767563 3.44978
        -2.24974 -2.75322 -2.70132
        -1.23897 2.32332 -4.77001
        -2.95499 -2.43675 -5.10281
        1.11826 -4.14849 0.0699793
        -1.78453 1.50473 1.00739
        -3.74226 0.0906219 1.13035
        4.72742 -0.462856 -2.98789
        -3.39898 -1.37506 4.01934
        1.92374 -1.83368 5.03109
        -2.46116 3.71247 3.96637
        -5.12181 -2.30966 -2.75605
        0.187571 1.53747 -1.12492
        -2.68121 -0.608263 1.12689
        0.880392 3.92637 -5.73075
        0.65342 -0.592311 -3.75258
        2.93158 -0.109525 -1.52098
        -4.31747 -0.51699 -2.47821
        -0.67784 1.21136 -1.54726
        -2.12797 4.83567 0.327803
        -5.47182 1.19808 -4.81139
        -3.17537 -1.73628 3.55473
        -0.283984 -2.81399 1.32616
        1.81757 -2.46244 2.38224
        -0.193405 -0.43998 2.97054
        -3.58253 0.33852 -5.96331
        3.71716 -4.64841 2.18091
        2.81113 4.92139 0.268482
        0.505261 3.11884 -3.59265
        1.64245 5.57833 0.0967151
        0.757792 0.814256 -0.67275
        -3.75727 -1.51277 5.84314
        -3.1441 1.17888 -1.22134
        1.35384 -4.04733 0.0382365
        -1.90009 -3.30506 0.595646
        0.30152 1.158 7.39263
        -2.07965 -3.54947 0.59557
        -6.46986 -3.55972 2.73201
        1.10011 -7.39744 -1.69465
        5.7205 -1.7706 -4.19914
        -2.26886 3.4346 1.84295
        -1.29529 0.769092 -0.0361845
        0.973474 -1.10196 0.416529
        3.51381 -3.92103 2.51086
        -4.84977 0.690039 -3.37626
        -1.90116 2.75694 2.90034
        1.02028 -1.3896 -5.17262
        4.07331 -1.73381 0.217434
        -6.69284 -0.539097 -4.63344
        -2.07952 0.281367 0.126273
        -0.198369 -3.17737 2.75245
        -1.59431 4.33937 -0.946473
        -3.56302 5.20342 0.0895241
        -1.31007 -5.50683 -4.42026
        -3.08449 -3.52211 -0.793015
        -3.17355 -0.524482 1.67981
        2.59881 2.09578 -0.857846
        0.387549 0.262017 0.145405
        -5.46237 -1.95401 0.949346
        -2.54681 0.266552 3.6767
        -2.11058 -0.350342 3.05049
        -2.31662 -1.66743 -1.61717
        2.5069 -5.56668 -0.491209
        -4.37271 -0.316018 -1.30335
        -2.16185 3.68419 3.70115
        -3.91121 5.90651 -2.07609
        2.25058 7.3146 -0.788511
        -2.69095 5.53311 -6.74166
        -0.533668 3.05482 2.14593
        -0.757611 4.2038 1.40505
        -3.97553 2.84308 1.85626
        0.506643 3.76665 4.17932
        0.439265 5.04632 -2.16348
        0.514464 -0.851952 0.692168
        -3.32983 -0.307753 1.39286
        -1.16213 -4.34772 -1.56507
        -1.17575 -3.96641 -4.90981
        -0.467969 -5.17735 -1.34773
        0.557866 -2.86169 4.67919
        0.442011 5.83976 -1.93588
        -0.818692 -5.88091 -6.25133
        -0.955828 -1.66869 -0.535205
        0.0891749 -5.67006 -4.36076
        -1.93398 -0.541624 -0.822996
        0.731262 3.48212 -1.20503
        -3.37283 6.08617 -1.47805
        -2.84719 1.99586 -1.33529
        -6.51826 -0.362069 -2.44576
        -0.976204 -2.21132 2.83612
        0.567888 2.95976 -2.92264
        0.922704 -4.31472 1.45023
        -4.14124 2.46427 6.38161
        0.918128 1.26262 2.20644
        -0.868486 2.45414 -2.0273
        -0.707837 2.45198 6.30575
        -4.86782 3.69542 -3.01849
        -0.577614 -4.9279 1.6999
        2.23128 -1.68164 4.67612
        -3.66997 -0.818744 -4.34857
        -4.87812 1.21916 -4.35994
        4.19613 0.811629 -2.11363
        -1.10319 2.91226 5.2391
        -0.135568 4.60376 -1.17874
        -2.25798 4.68066 1.45074
        -2.41668 1.56886 2.58035
        -1.34008 1.75688 -2.05501
        -3.79594 -1.75399 2.86006
        1.04422 -3.13546 -0.0119219
        -0.526084 0.603695 -1.50883
        3.99622 -4.34336 1.81284
        -2.65139 -6.79256 -3.66164
        4.53862 2.43188 -2.80958
        -1.98187 -4.07713 -0.266096
        1.27403 3.70166 -0.522741
        0.837799 0.264762 0.494192
        3.12543 0.845314 0.885037
        -4.32489 1.89661 7.89025
        4.85194 0.957162 -1.2462
        -3.01491 1.80178 -0.00355186
        2.41711 0.919773 0.708766
        -7.40011 2.70015 -0.846638
        -1.51962 2.25947 -1.17699
        4.46446 0.332037 -0.164115
        -0.294874 0.303568 -1.87913
        -3.01173 -1.90752 0.782109
        0.9259 0.0326162 0.462708
        -4.54324 -2.58701 -5.04318
        2.40443 0.464216 -0.561796
        -2.6468 1.66958 -5.14718
        2.81625 -1.32732 -1.05241
        -2.10497 1.35603 2.14941
        -5.28222 2.46733 2.36505
        -0.2215 2.90461 -2.4516
        -2.85875 0.964033 2.53923
        -1.52156 -3.43794 2.38963
        -1.00977 3.55007 0.312813
        -3.77437 1.99891 -2.3933
        -5.419 2.7895 0.894826
        -0.990292 -2.5813 -2.94095
        1.43159 -5.99481 -2.84159
        -2.01839 3.82822 1.38133
        -0.0243085 -1.22045 -0.529275
        -2.01078 1.27667 3.97281
        -3.1304 -2.93557 0.63496
        0.784001 -4.13975 -1.19707
        -0.872223 -0.235394 2.76931
        -2.31664 1.12049 -1.7818
        -2.41894 -3.90006 1.68775
        -6.11053 -0.0807091 0.160911
        -1.20775 0.909872 -1.73176
        0.846763 0.493973 -2.38702
        -0.56947 -0.343172 -0.272075
        -4.32451 3.79714 3.69072
        2.37824 -0.222611 -3.35094
        3.28298 1.54068 -0.649878
        -6.70428 3.0202 5.5152
        -4.00889 0.563945 -0.968416
        0.681789 -0.869775 -0.86482
        -1.03762 2.52379 -1.66213
        -1.37408 -1.8789 1.94633
        -0.814537 1.35128 -0.851462
        -4.31562 -1.84665 1.86541
        -2.11495 -1.78169 -0.186317
        2.47823 -2.65812 -2.1458
        -3.27281 0.342756 -2.60339
        3.20818 -0.13844 1.42854
        -5.2701 1.72432 4.12462
        -5.8346 -1.99781 -3.92013
        -2.15756 0.387747 0.87918
        -2.74288 -1.06051 -0.985148
        -5.3415 1.893 1.9052
        0.336075 1.46076 0.658347
        -3.08954 0.0154851 3.49761
        0.598401 3.97015 -0.750498
        -2.25608 -3.2221 -1.36524
        -3.5394 -0.383303 -0.938112
        -1.91005 3.96889 1.03707
        -0.806609 -1.51476 -1.41644
        -2.86113 -4.32907 1.6253
        3.74857 -4.48003 -2.36884
        -2.27104 1.85294 2.03917
        0.245248 -0.310786 5.32327
        -0.830599 -0.52667 0.946689
        5.18794 -1.87988 -0.57521
        0.449948 -1.09099 -0.528758
        4.25451 -0.322484 2.74418
        -1.83602 8.39996 0.496573
        -2.2865 2.76425 0.734249
        -3.33541 2.70712 -1.40288
        0.38788 -1.90377 0.325162
        -5.68963 -6.55225 2.47999
        -1.20813 -2.25188 5.13823
        0.258903 1.30138 1.20505
        -5.46887 -7.50547 -2.34674
        -1.63375 -1.21585 -0.866588
        -6.51334 -2.21946 1.68155
        0.928556 -1.98075 -2.83065
        -0.981776 -1.57167 0.886147
        -5.90613 -2.02795 -3.00225
        3.8698 0.982859 -3.01674
        -2.88424 0.740208 0.217758
        0.983402 1.048 -1.68253
        -2.39301 -0.431104 -1.52461
        -1.94801 -0.851451 -1.95473
        -2.80491 0.270709 3.52868
        -1.49072 -0.0893341 1.0736
        -0.53705 2.00102 1.26244
        0.0237265 4.60142 0.494677
        1.85525 5.76965 -1.03949
        -1.49941 1.31607 7.16185
        -1.37707 1.45461 -3.34368
        1.32054 -2.49912 2.85872
        -4.67481 -3.84508 3.32919
        0.706217 0.465292 1.07393
        -4.81868 -3.35661 0.682306
        -5.5993 -3.70755 -2.36829
        -2.66152 -0.108532 3.39616
        -0.323452 0.219062 7.68797
        0.0771749 1.94771 7.65124
        7.58136 -0.89491 -3.12993
        -4.67675 -0.148485 -1.74937
        1.00751 -3.0269 1.04472
        -2.76706 0.308099 2.68482
        -4.86325 2.09429 3.21041
        -2.84195 0.948231 0.036434
        -2.05158 0.169563 -3.53071
        1.16329 1.60076 -2.98281
        0.696363 0.930266 1.08395
        -2.49315 -0.514943 -2.51916
        -2.11598 2.6028 -4.45311
        -3.32482 -4.00385 -3.39117
        5.42825 -1.34221 -3.88231
        -2.30933 -2.32887 -1.72823
        1.3327 0.171789 -1.84407
        1.60443 -2.66328 -4.98904
        6.83405 6.04878 2.33202
        -0.40004 4.1675 -2.33778
        -3.35352 -3.4271 2.91948
        -2.08561 2.94447 1.43715
        -1.69452 0.340525 -0.702088
        2.46383 -2.37759 5.14
        0.261315 0.688683 0.827303
        -2.70485 3.62819 -4.45442
        1.2919 -3.12525 -0.982365
        -6.86003 -2.15734 -1.73447
        -4.06346 2.82199 3.90936
        -0.12802 5.87688 -0.822414
        1.53687 1.05084 3.8638
        -4.04272 1.62619 -5.42017
        -2.90044 3.08678 -2.25603
        -2.65877 -0.0841831 -2.67143
        -0.20965 3.26837 -1.95695
        2.46566 -6.55972 -2.0855
        -1.06485 3.06675 0.877907
        -3.36707 -0.38057 -1.95534
        -3.8599 -3.54903 2.85766
        -1.51741 7.94611 4.13414
        -3.04461 -2.39162 1.51809
        -6.64071 1.665 -2.16626
        -2.51842 0.253642 -0.114603
        -1.20316 3.67022 -0.948561
        2.92813 0.289999 2.22875
        1.40893 -3.90331 1.18653
        -3.07521 1.72648 2.21655
        -0.0547765 -2.14205 2.16306
        0.108983 -2.97325 0.521176
        -3.6613 0.233557 3.73038
        -1.10967 -5.50013 -0.711921
        -3.76874 -6.68135 3.53485
        -2.49781 1.52892 1.55253
        2.8502 -4.65618 0.578186
        -0.422587 3.17562 -3.46308
        1.57447 -0.796551 4.26104
        -6.6069 0.241382 2.3387
        -0.203547 -0.150287 1.36895
        -1.56113 4.98587 0.560339
        1.03556 -0.264636 -1.61353
        -0.308678 1.79237 -1.13571
        -3.62489 -3.57616 -0.583547
        1.56556 3.05017 0.638292
        -1.78902 -0.330749 2.4184
        5.93244 1.10463 1.55895
        -6.52168 -1.67555 0.0207722
        -0.45971 0.95972 4.32788
        1.99514 -1.22851 -0.556367
        1.22322 -5.6464 -0.693367
        2.53308 -1.23059 0.51806
        -3.01541 -1.75312 0.321921
        -3.37068 3.39265 1.13155
        1.24693 -1.82049 4.46559
        -7.06191 1.50889 -1.69174
        1.60559 -1.71931 1.87101
        2.651 0.083334 3.65534
        -1.90645 1.16246 -6.53558
        -3.78658 3.15865 1.78601
        -5.09368 -0.0449897 0.702577
        -1.2069 -2.35596 1.94122
        -3.0622 2.3539 2.03944
        1.83756 -1.35208 -7.22492
        -4.22025 2.34657 7.26156
        -4.92428 0.142741 1.76105
        -0.896492 0.136572 2.39148
        -0.975879 -0.712384 0.727666
        -0.393431 -0.725073 1.7513
        -2.52545 -1.21884 -0.302525
        -4.93126 -1.48178 3.45971
        -0.0417814 2.84419 -0.598721
        0.252029 -2.56097 -4.10415
        -2.1432 -0.728317 1.01932
        1.22941 -0.903729 4.48275
        0.676337 1.87777 -5.1666
        0.460281 -3.71508 -0.553837
        0.206329 4.228 0.486135
        -4.18298 3.38557 -2.19868
        1.23461 -0.0750775 -5.90921
        -0.844185 5.46796 -0.452299
        -1.2784 4.84847 3.89597
        2.91581 -0.948978 -1.29105
        -2.18293 6.17495 3.31117
        4.1695 -8.27153 1.77656
        2.18964 -4.81784 0.557916
        -4.75102 -0.206192 -5.53392
        5.36491 2.67587 -0.777282
        4.19288 2.78457 -1.34276
        -2.68939 2.72519 1.10797
        3.20422 -1.24297 -4.33653
        -0.854303 -0.631864 -0.790595
        -2.2328 1.28099 -0.368796
        3.28582 1.4477 0.444385
        -1.62663 -2.89824 6.36208
        4.50853 2.36191 -5.44851
        6.15072 -4.57832 0.188164
        -0.444892 1.19111 -2.10552
        0.150316 -2.10939 -2.26152
        -0.552975 -2.1519 2.19009
        -1.01533 -1.24262 1.76676
        3.7071 -4.48377 -1.86525
        5.20299 -1.33872 -2.79827
        -0.958325 0.532739 2.88388
        -1.94775 -4.16041 -3.02723
        -3.99169 -3.51623 -3.10148
        -4.71881 -0.825662 4.33763
        -0.0641029 -3.64705 -4.05893
        -5.82109 -0.0378244 0.622999
        2.22764 3.48235 -0.962182
        -4.01516 -2.41358 4.95765
        0.337053 -0.897311 3.48807
        1.40538 9.03641 1.36823
        0.521925 3.41042 0.746847
        -1.00668 1.23353 -3.87545
        -1.72082 -3.51384 2.1571
        0.696337 2.19509 3.76823
        0.553466 -5.48717 2.40083
        2.509 -2.33288 1.12753
        0.531147 3.99199 -0.268733
        -1.0107 1.5616 3.95594
        0.130474 3.36857 4.1206
        -1.70725 -3.2084 -0.0176807
        -4.98338 -5.79363 3.30184
        0.425835 0.083685 -0.472975
        -0.515662 -3.15095 2.92349
        0.207947 2.61655 5.3995
        5.28265 0.828605 1.23618
        2.19261 0.79029 1.24146
        0.306926 0.666608 2.59107
        0.248817 0.0316088 -2.11697
        3.94025 0.548079 -4.04308
        5.22745 2.28069 1.47022
        4.6119 0.807783 0.532724
        1.88893 -3.42135 -5.43103
        2.55947 -0.43603 4.99596
        -3.12484 -4.08418 2.89218
        2.10228 0.822014 -3.27315
        1.40553 -4.14529 5.94017
        1.43424 -2.28707 1.24381
        -0.565706 -2.93514 -1.94332
        -3.52182 -7.09144 5.09036
        1.86075 -3.39609 0.598219
        3.6517 -0.254481 -4.99402
        3.15625 3.25885 6.09577
        -1.36039 -3.46356 5.95789
        -3.14897 4.04693 4.23396
        1.27202 0.445975 -2.26838
        2.95127 -1.64478 3.65092
        -7.52981 -1.91967 -0.0950387
        0.131649 3.27169 -1.20742
        0.306168 -0.100938 -1.32563
        -2.72892 -1.96361 -5.76975
        -0.942635 -3.15009 3.45951
        -5.62445 3.39707 3.92945
        4.15559 -0.932608 -0.401434
        -8.33569 2.34026 -0.704778
        -2.25004 2.39096 0.344269
        2.21137 -1.04235 -1.97508
        2.27029 1.95845 -2.75426
        -5.65115 1.30255 -4.42643
        1.95963 -1.42601 1.36991
        -0.38134 4.60567 -0.23824
        -4.03274 -0.200508 4.79614
        -1.42577 2.62503 -0.600633
        -4.16802 -2.06 0.932512
        1.32912 -0.844133 -0.516161
        0.306498 -0.172977 -3.61209
        -7.82744 -3.7498 3.95423
        3.57489 -0.675529 4.18033
        -1.07329 0.239184 -3.20376
        -1.91365 -0.69147 9.23627
        -4.88864 -4.76004 1.42741
        -3.58147 -0.529258 -2.57321
        -2.52993 6.56424 4.55014
        3.87562 0.435114 0.980654
        1.35285 2.11714 8.79139
        1.47598 2.13124 -2.82708
        -7.66294 9.82372 -2.57271
        -4.58853 -2.07926 -4.41178
        -1.37127 2.31799 2.55146
        1.86878 3.80004 -1.79184
        -3.62269 9.23802 6.252
        1.99167 -6.05812 2.30336
        2.34192 0.475994 -6.6412
        -3.95592 -4.69923 -1.3523
        -2.64271 -4.79887 -2.47893
        -3.20339 -1.47855 -5.16516
        1.54024 -5.34164 -1.91202
        -2.08643 1.49322 0.779743
        3.19295 -1.81587 7.39865
        5.95838 2.23378 1.32005
        -1.14823 4.46734 -0.480287
        0.821106 0.0413403 -1.1789
        -0.380449 3.49475 2.1831
        -2.1273 -0.0630999 1.38511
        1.35481 4.47464 1.32571
        -2.56381 -2.2158 -0.359077
        -4.60303 3.20988 9.2995
        1.80431 -5.71366 -1.58642
        -0.78222 2.85124 -2.92895
        4.39052 -0.137796 0.371713
        4.47454 -0.546404 -1.15244
        1.25765 -1.02957 4.92009
        4.3636 2.248 -0.555644
        -1.03858 -1.95596 -0.0687295
        -1.19841 -4.76563 6.5966
        -3.77011 9.26415 -4.13935
        2.37928 -0.23135 -4.10174
        0.428325 -1.44846 -0.796504
        -2.30466 -1.73683 -1.25491
        4.61349 2.05976 -1.79701
        4.80645 0.293379 -4.01077
        -3.88206 0.348573 -0.235073
        -0.396704 -0.613912 2.02145
        0.472424 -2.7869 8.67395
        -0.716226 7.67689 -1.40514
        -4.18882 -3.00281 -1.84701
        -4.45981 1.06953 0.669733
        2.40197 4.73926 -0.868494
        -6.13397 -1.28686 -1.34321
        3.07915 -2.17735 0.311125
        4.13804 3.69176 -4.31609
        1.75069 -3.10614 -5.78025
        0.235404 1.17407 -5.04189
        0.857741 4.98821 1.34787
        0.829056 -0.362791 -2.20885
        -2.94664 3.72513 5.98366
        4.64167 -1.59191 5.95572
        -1.63817 -0.485568 -4.16897
        3.2829 -8.19717 2.39816
        -0.150036 5.7172 6.1107
        6.34465 2.80496 1.5496
        2.00213 -5.1622 -3.24075
        -2.95051 -1.07711 -0.964329
        1.66714 1.90967 -2.53316