<?xml version="1.0" encoding="UTF-8" standalone="no" ?>
<VTKFile byte_order="LittleEndian" type="UnstructuredGrid" version="0.1">
  <UnstructuredGrid>
    <Piece NumberOfCells="0" NumberOfPoints="15094">
      <PointData>
        <DataArray Name="velocities" NumberOfComponents="3" format="ascii" type="Float32">
        -1.2642 -0.544958 5.36776
        2.37902 0.487179 3.2065
        0.562508 2.20772 0.883681
        -1.08482 -4.26039 -1.83833
        2.28415 4.44233 -0.467315
        0.502854 3.56619 -0.873094
        1.48316 1.61487 2.82721
        1.66903 -1.42608 -1.73095
        6.5433 0.557429 2.20341
        2.44488 -1.69532 3.9599
        -1.06702 0.0947782 -0.384806
        5.03071 1.63583 -2.59552
        0.767622 0.847747 4.45943
        1.51253 -1.86965 -0.148952
        -3.32754 0.231642 0.212291
        -4.02485 4.63404 -2.00034
        4.57678 3.10477 2.93521
        0.75682 2.24081 -3.58003
        -1.17455 -3.38312 2.1096
        -4.3392 -2.89685 -1.36443
        3.07295 -0.775487 2.40272
        -5.31772 -4.87148 4.19018
        0.838621 -0.310783 -3.83507
        -3.06656 -3.96468 -0.765685
        2.56477 -6.74563 -0.0987281
        -2.3485 -3.76327 1.0364
        1.82603 -6.76078 1.288
        -1.04397 0.454522 -0.172469
        5.87852 -3.67333 1.18814
        -0.873799 3.17491 -5.88037
        4.77277 -3.06386 1.05295
        -0.956893 -1.80928 -1.49237
        -2.42468 -2.92808 0.993042
        -3.10924 -5.1132 -4.88773
        -0.421698 -0.628702 3.55038
        -2.02291 -0.194735 -0.335394
        -2.11297 3.31366 -1.23545
        -2.62515 0.018484 0.138146
        3.4818 -0.000189419 0.516988
        0.781917 0.410504 -0.0999405
        0.901846 -2.57645 0.0554722
        -0.299463 -0.07036 1.80086
        -0.691387 1.08282 -0.0642271
        -2.58 0.604489 -4.12851
        0.688039 0.559302 -1.6497
        -0.119055 3.2002 3.14163
        1.0939 3.29264 0.343233
        0.971851 0.727946 4.92446
        -0.235502 1.93274 1.70353
        4.86391 2.83156 2.783
        3.41253 0.382582 1.82517
        -0.579806 -3.80586 4.29331
        2.86026 0.633203 -4.08118
        -3.66976 -5.82822 -0.822052
        -4.39605 -4.01536 2.72015
        0.425159 -0.470489 1.63131
        0.277705 2.46337 -0.220286
        2.49824 0.718504 -5.78772
        3.66959 0.589896 -3.51963
        -0.146226 -1.51662 6.82318
        0.764857 1.21583 -4.5764
        0.769914 -2.45404 -0.302733
        -0.432974 -4.10483 0.16671
        -2.03533 -3.96535 0.00697319
        3.09414 -0.692145 -1.26131
        2.42675 -0.675009 1.40864
        2.99502 0.752733 -0.287817
        0.402161 2.68108 -0.860752
        -0.81664 0.694191 -1.32809
        2.56952 -0.236816 3.94508
        -1.9109 -2.51793 2.37075
        4.07368 1.89298 2.49447
        -4.66481 2.256 2.52415
        0.543948 -1.45331 1.26599
        2.72125 -4.54964 -4.46481
        3.46128 -2.59864 -1.76696
        0.47277 -0.216455 -2.74856
        3.18152 1.01794 -0.0530826
        -0.468893 -2.93402 -4.59033
        2.72774 1.43718 2.46269
        6.59228 0.412911 -3.56246
        1.14952 1.48678 -2.82431
        0.427737 2.35109 -1.78033
        -3.10507 -1.77499 -8.4708
        1.6632 -3.49016 -5.44025
        -2.21679 0.695782 3.23747
        2.94643 3.4531 -2.30702
        0.545436 4.55107 -0.342857
        -1.00291 4.18054 -3.10613
        -0.206078 1.96469 0.391958
        -4.22574 1.72414 -1.34067
        3.2001 1.12736 -1.09164
        3.46779 -1.59498 0.19618
        -1.35198 -0.384872 2.02706
        2.38204 -2.08625 -0.619602
        3.74965 5.2302 -1.54506
        0.988473 -1.80008 -3.34545
        4.84581 0.688108 1.99063
        -1.65148 -2.40125 -0.365673
        0.548865 2.40866 -2.57813
        0.48154 -0.871844 -2.11542
        1.12502 -3.14038 2.83364
        6.11682 -2.74811 2.51501
        0.882324 -1.1945 -4.62431
        2.27781 -1.37549 0.625429
        1.95076 -2.72858 1.84704
        0.521387 -1.13832 -1.59312
        -2.9972 6.09474 0.642668
        4.9215 0.174038 0.710883
        1.21686 0.578594 2.80309
        6.83676 0.95045 -1.85746
        4.01813 -1.51587 -1.22286
        2.93955 0.492799 2.26019
        -2.05355 -1.42071 -0.657505
        0.470252 4.1983 1.0699
        3.01727 0.402355 4.94248
        1.18303 3.08564 -3.74695
        0.221743 0.670155 4.22606
        5.96157 1.50194 -3.44925
        2.30108 0.744439 -1.67904
        -1.93822 -3.60033 -1.41589
        2.34864 -0.948032 -0.416777
        5.52832 -3.83607 1.79841
        -0.608417 -5.37714 -4.19787
        1.43296 -0.578983 0.891796
        5.27877 -2.44042 0.00199114
        0.798929 -4.29177 4.54238
        -0.339744 2.60968 -0.721129
        0.225251 -1.09659 -5.09907
        1.64383 3.31721 -1.45369
        3.46207 0.326883 7.25628
        0.00403397 -2.15164 -0.674519
        0.636472 0.963799 -0.609639
        4.89139 -2.10125 0.72159
        5.32032 -0.623913 -5.38948
        2.38245 0.719172 2.26657
        0.965822 0.986453 -2.84668
        2.35565 -0.86572 -2.69543
        -1.76856 -0.123207 -3.74879
        0.257157 0.761391 0.303248
        -2.93166 2.56571 -0.359941
        -0.040087 3.34364 1.45515
        -3.24924 -2.21449 -0.226319
        1.96685 -2.95664 2.41429
        -2.79411 -5.71206 -2.93564
        2.96244 1.69025 -3.19104
        0.60109 -1.11121 5.41655
        -0.654496 1.64758 2.39211
        2.05642 2.67901 -4.95711
        1.08725 -1.31159 0.104335
        2.49236 1.86639 -4.20536
        3.42597 0.634644 -2.43402
        -3.46651 4.59931 -0.728505
        1.77931 0.458735 -1.77124
        0.822702 -1.42639 2.70873
        -0.0230666 -9.06583e-05 -3.69574
        4.45497 2.75352 0.904593
        -2.09604 3.73067 0.932331
        5.3908 2.58627 2.07999
        4.21127 3.2001 1.0774
        -1.11812 -0.813439 -0.911044
        1.28909 -5.1917 -1.09671
        1.51627 -1.73564 -3.529
        1.49091 -1.29785 -2.97027
        4.64809 -6.9881 -0.0239194
        1.21751 -2.0044 0.342659
        0.0583128 -2.62882 2.05061
        4.85318 4.81335 -2.35556
        1.95355 1.64601 -2.32724
        5.64585 1.53332 -4.02611
        -0.453331 -0.187266 4.05892
        -1.7119 0.0521939 2.15538
        6.13538 1.1353 0.847599
        2.00901 0.149034 0.150216
        -1.83971 -2.87221 -5.45704
        0.895392 2.46014 1.18554
        -5.5659 0.72442 1.45131
        4.43699 -2.13281 -1.71249
        0.454735 8.0681 2.46048
        5.96508 3.14701 2.47026
        -4.67708 1.38596 3.4286
        4.92219 -2.19991 1.42783
        -3.97885 3.40406 0.0112188
        4.65888 -3.64062 1.08079
        2.03752 -2.08703 -2.39372
        2.05748 -3.45751 2.18698
        2.21806 0.377124 -0.490601
        -2.35361 -5.00665 3.39147
        -0.493116 -0.237787 0.472952
        0.429581 0.916036 -0.318272
        0.213723 -3.85979 -0.146819
        4.84748 -1.96076 1.10549
        6.44116 0.255568 -2.38697
        0.313106 -0.0340086 1.19665
        -0.0793182 -0.936198 0.309511
        2.9447 -1.99595 -1.63717
        0.0665709 -5.88827 1.52779
        5.16757 2.37872 -1.40525
        6.27766 -2.26198 0.206313
        2.78688 7.75538 -2.67426
        3.79895 8.17529 -0.185642
        1.91985 0.280356 0.578216
        2.20692 -1.96036 0.718517
        4.41317 -3.03326 1.48318
        -4.67529 -3.53865 -1.26181
        2.72574 -3.78597 -3.72343
        0.763409 2.12199 2.8372
        2.66763 4.92524 0.952041
        2.74183 -2.14767 1.43927
        -3.50191 -3.28645 4.10768
        0.000260213 -2.04582 3.42327
        0.174981 2.98078 1.34422
        -2.14576 2.30734 -1.76624
        0.275464 1.63531 -1.47784
        -3.16693 -1.35324 -1.23721
        5.37118 3.74222 1.98192
        -0.801752 -6.42655 -5.23695
        -5.85609 2.1048 -3.88001
        -1.19743 -3.19206 3.93091
        1.7728 -3.81281 -0.764087
        -0.168597 2.2836 5.39498
        2.42269 1.47477 2.21428
        0.831132 3.25601 2.26011
        2.10794 0.620436 -5.39164
        2.34497 -0.412432 6.5238
        -3.6735 3.17559 -3.30763
        -6.4526 -2.80402 0.147655
        2.23931 2.87034 -1.78064
        2.03009 -5.13153 -2.33014
        2.77043 -1.32447 -5.11569
        1.1248 2.57598 -2.40869
        -2.88471 0.543326 2.1701
        6.25191 -5.21898 0.0766104
        1.1295 0.800877 -3.72422
        1.94641 -0.827432 0.784159
        0.296178 -2.21073 -1.34906
        -2.05979 1.24042 -0.105209
        1.92158 0.165748 4.25203
        2.87459 -1.1987 1.61227
        3.59474 -2.03458 -1.43139
        -2.03256 0.282586 -0.967004
        -0.396521 0.409525 0.621712
        1.95168 -1.39442 0.992456
        -0.359631 2.8064 -1.42135
        1.9983 5.41605 2.862
        1.29141 -6.67588 -3.28966
        -2.08734 4.61005 -1.13893
        4.62201 2.23548 3.06656
        -1.43325 1.49272 2.69067
        2.79253 1.79985 3.18494
        -1.11312 1.32408 -3.73903
        0.233657 -1.0182 -1.7934
        -2.25926 4.82415 0.69517
        3.52499 3.88973 -1.24361
        -1.77767 2.52441 0.187952
        -0.658506 5.97293 1.73945
        -1.55928 0.946307 5.18572
        0.0257886 4.78992 1.28369
        3.0258 -4.22364 -0.362296
        -1.67807 -0.700015 3.25378
        -3.73644 -1.05783 -6.59567
        -1.22823 -2.73472 -0.832095
        2.98005 2.47926 -1.2024
        -4.10011 -0.920359 -2.33447
        -1.14242 -4.12407 2.34067
        -6.86402 0.557174 -3.799
        3.03538 4.22569 -4.51486
        -2.43402 0.466931 -8.25861
        -1.91797 -0.135228 -0.516634
        -0.765337 -1.36724 0.671934
        -3.26049 -2.38117 1.18604
        1.77295 -1.60402 -4.1868
        7.75611 -2.5486 2.14571
        3.57307 1.72203 -3.40418
        2.29322 3.44161 -1.41199
        2.42288 3.61681 -3.2822
        1.4336 1.69533 2.28083
        0.362087 2.88863 1.84663
        2.09722 1.96748 -3.12473
        -3.20672 2.40714 -4.44986
        1.75309 -0.0596622 -3.16171
        -0.129855 1.9333 -1.67872
        -0.24976 -1.59011 -1.70479
        -0.941112 -1.32546 0.133351
        0.925855 -0.537727 -0.0515096
        -1.23502 -3.83824 -0.776021
        8.07265 4.89975 0.601759
        1.19994 -2.88186 -2.28878
        -1.46509 3.64991 -1.44076
        -3.00083 2.88348 -2.82839
        0.947621 2.62715 -2.10539
        2.04762 -4.55995 -1.67137
        2.49462 -1.57112 5.35019
        -0.010537 -0.895178 -3.41713
        0.800529 -1.87994 -3.18128
        -0.659659 0.620596 -2.32892
        4.13833 3.03121 -0.861144
        -2.83838 -4.25391 0.843963
        0.354023 0.204984 -2.22321
        0.924875 -0.624049 2.23988
        1.17621 1.60428 -3.59491
        2.34549 7.2373 0.516235
        1.87633 1.24745 0.0615442
        4.50728 -3.93129 -2.17913
        0.811334 -3.1499 3.74918
        4.90261 0.848562 -1.32517
        1.96278 0.984771 4.60444
        0.0289834 -3.64577 0.141083
        1.84674 6.83129 -3.02531
        -4.316 -5.45581 -2.78606
        -1.91945 0.167156 2.4052
        -0.201541 -1.92178 0.0130763
        6.3319 4.22503 -1.1265
        2.91684 2.25022 -6.31212
        -0.480873 -2.29054 1.27843
        -2.62454 0.847089 2.6508
        -2.74087 0.361283 -0.781774
        4.06714 -1.44839 -1.54998
        -0.749048 3.14957 -2.0566
        -2.21949 1.18527 2.46051
        -0.130452 4.65303 3.31131
        -1.12964 -2.81903 -3.25561
        1.46545 -1.88429 -2.74698
        -2.3281 3.42205 0.809691
        -0.518203 -1.94246 0.972127
        -1.66988 1.09411 -3.44468
        4.47029 1.133 1.01573
        2.16543 -1.25476 -2.14583
        1.23927 -2.09404 0.365281
        -0.792532 -1.87757 -4.16102
        4.0409 0.528994 -2.85578
        -0.793579 -1.98978 2.91299
        4.2985 1.38386 -4.81338
        -1.55472 4.46798 1.97284
        2.42043 -2.45613 1.83427
        1.27058 -0.299668 -3.154
        1.68393 -0.584718 -4.83518
        -0.447162 4.06477 0.815194
        -0.54082 -3.19165 -5.62818
        3.8229 -0.804714 -1.15273
        1.05951 0.854648 -3.93123
        3.72452 0.16636 -2.30807
        -1.6802 1.50951 0.497478
        -1.51679 4.42044 0.347298
        -3.06342 0.495152 4.24973
        -0.884816 1.07805 1.03054
        1.17894 -1.36019 -2.74823
        -1.25931 1.36671 -0.605288
        1.58976 -1.70308 -0.313937
        1.78362 -0.645613 -6.69347
        4.28686 4.68453 0.813355
        1.07721 -7.29895 2.70343
        -0.327644 2.4305 2.21147
        1.77582 2.48202 -0.22394
        -0.529545 1.00634 1.42955
        -0.556302 -2.41436 1.75139
        -4.15905 3.40112 0.391514
        1.82228 0.39355 -0.199623
        3.66265 -3.7001 0.103434
        2.28452 6.21498 -2.50301
        2.88679 0.15775 -1.63732
        4.35742 -3.39421 1.69781
        5.88491 -1.91229 -3.17005
        5.3385 2.67257 0.289096
        -5.23226 -2.34061 -3.79604
        0.105175 5.69114 -2.54395
        3.45354 -0.477788 -4.10829
        -0.83793 1.41982 -1.70188
        2.08853 1.31321 -3.32331
        -0.512668 -0.0340738 0.522461
        -1.21203 -3.14491 0.386035
        1.76554 -0.749773 0.424566
        -1.22422 0.814762 -0.871095
        2.35385 1.73388 0.897893
        -0.0808145 2.10343 6.12472
        2.35452 -2.65494 1.44032
        3.03242 1.4251 -3.0892
        -2.83055 0.0445472 1.27663
        -0.177133 1.34438 -1.84845
        -2.0304 2.99766 3.90539
        -4.68862 -3.49373 2.60908
        -2.48173 2.63819 -1.64461
        1.71267 0.381657 -2.54071
        -2.58376 -0.185336 0.792718
        3.22039 -0.13875 -1.51002
        1.39599 -3.78468 3.2708
        -1.10128 2.90107 0.938208
        -4.6997 0.0101212 -2.83023
        -2.17862 -0.49541 0.147741
        1.88267 1.64897 -2.70273
        1.55836 -2.55956 -1.55318
        0.996326 -0.209026 1.54272
        3.8151 -0.0477537 0.245162
        3.25707 -1.01196 -1.51945
        1.61958 -1.30961 -4.21105
        5.07925 -1.57969 -1.27354
        3.661 -1.80772 -3.98811
        5.23029 -4.61894 -3.52399
        0.405503 4.94843 2.36514
        -1.26192 0.990009 -2.99343
        0.56395 1.62707 -1.71437
        4.05211 1.91931 -0.285021
        3.04635 -0.350707 -0.944886
        4.59825 -3.10051 1.49311
        0.275715 -3.744 0.193081
        -4.29244 0.0764272 0.605308
        -0.0726079 1.02337 -0.995922
        2.33008 -0.404248 -1.44955
        2.06374 -2.43843 1.17112
        -0.791569 5.07366 2.14313
        0.302465 -1.49795 2.91159
        -1.23421 -0.600201 0.191308
        -0.820415 -3.55066 -1.72899
        4.19942 0.795325 1.51291
        -0.568329 0.778948 -0.146432
        -0.0990242 3.97737 0.820718
        2.72319 -1.71365 0.575945
        -0.396686 -3.56121 0.511383
        0.593027 0.172736 0.402503
        -0.833003 0.00190488 0.446959
        2.90439 0.994846 2.52411
        1.30983 0.573093 -2.17387
        0.702887 0.694538 1.07296
        0.801804 1.01883 -1.55154
        -1.06002 -2.44667 1.12793
        2.12533 -1.06799 1.14203
        4.83831 0.127616 -2.56862
        -1.19586 2.20653 4.98965
        4.55437 -2.21853 -0.204618
        -1.56344 -0.733667 2.31744
        0.153713 -1.88654 3.39432
        -3.13462 1.21726 2.812
        -2.10362 1.62179 -0.302388
        0.987958 0.155864 -1.81539
        6.34915 4.65374 0.767236
        0.192176 -0.522339 2.04218
        3.00234 0.453453 0.828176
        4.33407 -0.284878 -4.4232
        3.17434 -1.53583 -1.50659
        -2.67845 -3.64546 4.03561
        -2.64254 4.58164 3.87545
        -2.18912 -0.966827 -4.63216
        1.91876 -2.38637 4.81296
        0.402334 -2.60214 3.52865
        0.388684 -0.377694 1.65004
        1.65689 1.45654 4.24115
        2.72292 1.39519 0.458976
        -0.0217364 -3.82162 2.23232
        -2.88886 -2.13601 -1.31584
        -0.850506 -2.43481 -0.787164
        2.13825 0.84289 0.564407
        -2.24786 -4.05675 0.10955
        0.345096 1.4407 0.982453
        -1.40799 1.1065 -1.22015
        -0.345964 1.13105 3.33399
        -0.293635 1.75269 -7.81661
        4.26152 0.492742 2.77522
        0.331791 0.820947 2.24872
        0.937079 0.80992 5.26635
        -2.82543 -1.19291 -1.17085
        -2.74693 -1.57672 0.612515
        -1.07305 -1.53948 1.63253
        -1.01107 0.511439 0.669076
        -0.234848 1.97556 1.06842
        1.36409 -0.364276 5.0869
        1.99082 0.423564 1.80382
        1.0019 2.70009 -1.67598
        1.41638 -0.319592 -4.95013
        1.98408 2.59111 -1.78453
        -1.58522 1.48673 -2.7749
        1.37347 0.938401 -0.89243
        1.68406 3.18078 -2.94099
        -3.07026 -3.56826 -0.48917
        -0.666424 -2.20843 -3.53926
        -0.450199 -1.83365 -2.24868
        2.83908 -1.29982 -2.05357
        -1.81499 0.377528 0.192931
        3.64091 -0.877766 0.377942
        3.54861 -2.44484 -3.08186
        -0.164061 -0.792728 2.09153
        1.8689 -2.27677 2.19396
        -2.08717 -2.67062 1.8148
        3.67598 3.89626 -0.606983
        -6.50935 3.19728 -2.09223
        2.27717 1.74404 -2.11065
        -0.691931 1.18407 1.51327
        -0.683162 -0.878427 -3.4357
        4.24672 2.72811 4.23737
        1.33293 0.317638 -2.76459
        -2.21916 2.6093 0.745018
        -1.17317 -3.86492 -3.03199
        -0.662396 3.90373 -0.838723
        5.7655 -2.11619 -1.89954
        0.502666 2.1002 -0.847596
        0.383978 -3.08574 4.73106
        2.36708 2.57752 -3.21682
        -1.65476 1.61956 -0.869234
        -0.324634 -0.292248 2.91974
        5.11376 2.63006 -1.96957
        -0.555487 0.926705 -0.644241
        0.283665 3.93628 -2.14661
        3.70645 0.317632 -2.12854
        -0.489991 -3.94745 1.09173
        0.662825 -0.477681 -1.54929
        1.36448 2.25541 1.00803
        2.71428 0.995863 -1.94087
        2.21801 -2.66331 3.65753
        -1.07169 -1.08835 -0.286481
        -1.10798 0.482764 -2.10241
        2.26945 3.79875 -4.08084
        1.36814 0.662468 -0.497734
        1.33597 -2.4311 -3.6647
        -1.85531 -0.868178 0.416556
        7.60474 -1.77751 1.20774
        2.6342 1.54796 0.950229
        -0.340649 0.45935 0.688753
        -1.00513 -0.230605 1.6228
        4.47471 0.866998 4.71529
        -1.64731 -2.3883 -0.864912
        0.625834 1.76426 0.184249
        3.35226 1.03723 -1.3705
        0.779691 2.16474 1.62255
        -2.36512 -0.440954 -2.93225
        4.584 2.80435 2.52208
        0.272789 2.6938 3.57931
        0.884049 3.63311 0.634624
        0.370048 1.43831 -0.121485
        1.11567 1.6154 -2.92785
        2.64263 1.34266 0.308054
        -0.373729 -1.66765 1.64825
        -2.89392 -4.39953 3.9181
        -2.29228 0.46471 1.50284
        -2.06949 -0.517022 4.45419
        -0.0466202 1.71377 0.332058
        1.58181 3.5522 -2.99198
        5.69249 1.81915 -1.10153
        -1.36528 -1.52442 -2.9122
        5.0675 -0.139537 -2.68805
        1.85022 3.01912 2.85677
        1.23861 -1.12029 -0.90668
        2.84232 0.198938 1.26334
        -0.169318 -3.91522 -1.58941
        4.6267 0.712736 -0.491445
        -0.119646 -5.40501 -0.344223
        1.9339 -1.6359 2.71317
        -4.98568 -0.0204031 2.78101
        2.0952 -1.50971 -0.16235
        1.44558 2.73268 -4.74152
        -2.81492 -0.867992 -0.442388
        1.74568 3.03765 -1.48095
        0.0211759 -1.13063 3.16251
        -1.08429 -1.74381 0.0994396
        1.98749 1.00731 -2.11898
        -1.38421 -4.17031 -0.0559243
        0.963094 -1.1826 -0.82438
        -3.05283 -1.50906 5.66703
        -1.43403 -3.81456 -1.42762
        -1.5008 -3.31773 -2.51642
        -0.697262 2.52558 2.29541
        -2.57562 1.01802 -1.89723
        1.51011 -1.44324 0.666787
        -0.924501 -4.66714 -0.906194
        -0.0157551 -3.33005 0.364264
        2.47796 -0.314785 -0.370759
        -1.41046 -0.833586 2.57753
        -3.91148 3.657 5.34839
        2.19017 -9.22695 1.16233
        6.21712 3.71261 -2.25225
        6.76234 -0.856181 -2.66883
        1.83932 6.37045 -2.28604
        -7.02671 -1.72155 -1.49558
        2.67447 0.0189631 -0.346469
        3.97243 -0.586217 -2.22675
        -1.56863 -0.343546 -3.19005
        -0.421962 -0.920245 -0.832884
        -0.870171 0.0174165 -3.53771
        3.74712 -0.122822 2.27081
        2.41528 1.60535 -0.123358
        0.623092 0.592654 -1.11597
        3.48101 1.80531 -0.95101
        0.411011 -1.46084 -0.300013
        3.18463 2.40544 -0.149201
        1.89432 -2.894 -2.4688
        -2.05754 0.540258 -2.00735
        0.776832 1.41214 -2.76696
        3.40441 0.185709 0.992236
        2.9054 3.5135 -2.64012
        2.62711 -1.76456 -1.19068
        -1.49246 -0.899479 -0.747079
        3.13327 -0.637463 0.326943
        3.46201 -1.31307 0.571957
        2.71047 -1.35609 -0.593589
        5.0427 2.00484 -3.36875
        0.763867 -2.13811 -1.37398
        2.11774 -1.03634 3.26269
        0.691696 3.2622 0.409657
        4.90596 0.110343 0.568077
        3.77501 0.462806 -0.399705
        -0.550597 2.71263 1.19226
        4.01189 2.74029 -0.0590007
        -0.652989 -3.69587 -4.90522
        -3.60173 3.04065 -3.6068
        -0.752 -2.63407 0.666049
        2.62238 6.01606 3.16598
        0.814273 -1.68579 -3.45769
        -3.10452 3.22047 4.90501
        2.13632 -3.85211 0.858949
        -0.569974 -2.91292 -2.367
        1.37018 -1.47449 3.18119
        -1.80369 2.17117 2.17086
        4.86987 3.16848 4.71187
        3.12879 -1.45553 1.68416
        -0.634857 1.93007 4.88706
        1.3006 -0.312214 2.40886
        -2.56631 -1.30101 -1.17277
        0.0359263 -0.655368 5.8944
        3.77136 0.822256 -4.54388
        1.35296 0.427874 -0.904281
        -0.107107 -0.567371 0.56117
        -1.03293 1.30796 -4.13731
        1.84809 -5.99584 -3.12635
        -1.81579 -2.43924 -1.40794
        2.50506 1.56983 1.45236
        3.61729 2.63683 -0.667605
        -1.92257 -1.96315 -0.513875
        0.970323 1.30142 -2.28845
        5.37176 1.97504 1.91305
        -1.29577 1.24256 -2.58636
        4.58478 -1.55392 2.4848
        -2.06256 -6.732 1.42536
        -1.2658 0.715928 -2.55439
        1.33476 -2.59834 3.7869
        1.39641 0.157531 0.689856
        -1.01013 0.85579 1.99657
        3.86644 4.74228 0.404537
        1.68287 -4.36639 1.8916
        2.86542 -1.15916 3.58927
        0.118017 -3.89223 0.944748
        -2.23208 2.36418 3.61479
        0.0809442 3.0761 5.79618
        0.634859 3.45791 -0.112501
        6.09626 -0.68795 -2.27271
        -1.19845 -2.86495 -0.261376
        1.98375 0.534565 0.672713
        -4.74666 0.527695 -4.25562
        4.12579 3.81087 1.95402
        -2.18901 -5.09437 3.62657
        4.28161 0.902227 1.10629
        -0.986626 -2.74404 -0.883647
        1.00478 1.85387 1.80791
        -0.142632 -2.55334 0.707791
        1.68343 2.38742 2.36607
        -4.63905 1.59287 -2.9769
        4.42856 3.49969 -1.01353
        -3.43627 0.0139359 3.12342
        -0.594845 2.02252 3.17608
        -3.45649 -8.81182 0.407496
        -6.51575 -5.74876 2.40723
        -1.36835 0.220253 5.10877
        1.92914 2.77094 0.877471
        1.8671 -1.95945 -2.58551
        4.62325 -1.42426 -1.83653
        -0.241472 6.81254 1.91782
        -1.33831 0.295403 0.933055
        1.38243 0.993099 5.85153
        0.541659 -3.96403 4.21012
        0.84542 1.69336 0.528374
        -0.918225 3.30919 -0.75578
        -0.522161 -1.60915 -3.51565
        -1.7556 -3.11587 -6.39658
        0.184012 0.900274 -3.45114
        1.45337 -1.51534 -0.549663
        -3.32016 -2.26551 -1.12678
        1.83015 -0.568163 3.74291
        0.793512 0.508838 1.91636
        -3.23778 -1.56587 1.77211
        -3.55745 -0.428472 0.266876
        -2.44183 -0.175829 0.0470365
        2.50598 -0.354331 5.06085
        -0.754018 3.6692 1.97988
        2.91422 -3.69976 3.34891
        2.09748 -0.424885 0.203584
        -1.38663 4.84797 2.43775
        -1.5005 0.903356 0.12242
        0.724113 0.294771 -6.34335
        -2.3859 0.165784 3.0765
        0.272728 2.5434 4.85083
        -3.12261 4.36544 3.06972
        1.06279 -0.85035 2.14891
        4.6202 1.24769 -1.45783
        -2.5321 6.87417 -4.10146
        -1.82348 1.84494 -0.748988
        -2.20595 2.96164 4.1525
        -0.710221 0.910284 0.942001
        0.738173 -2.26618 1.76493
        3.91694 -1.85578 5.37746
        -0.0797618 -2.02492 5.08781
        0.997115 -0.10837 -2.90226
        4.6856 2.92284 2.94003
        -1.52715 -7.01875 -2.52142
        0.333689 3.83546 -1.28419
        3.17596 -2.65417 0.357814
        3.06821 0.35189 0.709454
        1.50507 1.73676 -3.26454
        0.714254 -5.06595 -4.91434
        3.84646 0.575459 0.461
        1.82121 1.4561 0.954214
        -0.076038 5.37924 -4.10631
        -1.12414 -1.7846 -0.476072
        5.03384 -3.02754 -1.34471
        1.38652 5.32468 0.466222
        -1.37423 -0.110104 -3.45301
        -3.89386 -2.277 -0.884597
        -1.2791 0.603578 0.977143
        1.98885 -0.388138 -3.79285
        -2.58524 0.0490982 2.15704
        4.43821 -1.49597 -0.00554981
        -2.04363 -3.482 -0.890796
        3.15345 -2.47215 -3.21701
        -0.526402 -2.29266 -0.224407
        -4.35135 -2.19151 2.52864
        0.153659 -1.98164 0.151457
        -3.19329 -0.369961 2.37528
        3.035 -0.454065 -0.960355
        -0.254523 -2.14488 -0.251683
        2.85959 -1.18291 -0.0714989
        0.928908 0.129869 -1.4876
        3.07644 -0.666621 0.442907
        4.02382 0.0244165 -2.7369
        4.34456 -2.23296 -0.725416
        -1.41092 -3.63437 -1.85986
        -0.947519 -0.348087 -1.45982
        2.35712 -0.426683 -3.4686
        1.45926 0.8983 0.716173
        2.30669 -1.3041 -0.0409701
        -0.204392 1.9191 -3.32203
        -0.115516 4.06258 -0.445538
        4.02582 -2.26497 -2.4651
        4.79935 0.879562 -2.47513
        3.55454 4.11479 5.62911
        0.692435 0.0107505 -2.20544
        4.77092 -1.65547 1.76695
        -3.26027 2.14054 -1.52301
        -0.128592 0.915964 1.26189
        0.0898939 3.34149 -3.25684
        -6.60458 -2.07041 -0.769096
        -4.67929 -2.14995 -5.6855
        -4.28262 -0.71146 -1.28993
        -2.59768 -3.04645 0.00775897
        -1.69587 -1.52364 -1.29019
        -3.36591 0.69417 1.89971
        6.40391 -2.73678 0.365429
        -1.90287 -0.0838602 1.63799
        -1.39868 -0.952826 0.957416
        4.45516 1.05194 1.45579
        2.95867 -5.15675 2.99765
        -0.485379 -1.14266 6.77934
        3.20558 1.98099 2.82644
        -1.40848 2.6034 -2.53831
        -0.555227 1.88286 -1.53658
        1.66671 -3.4717 1.00418
        6.0266 -1.40668 0.37987
        -2.63245 0.291754 -0.11194
        3.09583 -1.10924 1.19134
        1.776 0.179427 -0.493572
        -2.24221 2.37748 2.45337
        1.57019 4.94577 3.90781
        -0.953079 2.98364 0.762476
        2.4375 -0.460531 1.08113
        3.20585 -2.81662 -3.02527
        4.45765 1.53309 -1.39504
        0.34018 -0.290179 2.57068
        -1.28593 3.27411 3.92329
        4.17272 0.761724 -4.34051
        4.2855 -3.87425 -1.84493
        -4.58844 2.28258 -6.48026
        3.24035 -4.96193 -0.328014
        -1.54859 0.808237 -1.81448
        3.30644 2.59053 -0.735667
        1.20877 5.86255 1.00137
        0.923084 -3.18195 -0.286861
        0.421045 -1.06666 -0.663886
        2.84852 -2.20723 4.4364
        4.44365 -2.34032 -2.16371
        5.21624 2.22896 1.37177
        0.453904 -0.405047 -7.56559
        -1.73689 3.62795 -1.67076
        0.451926 2.59988 6.34532
        0.398585 -0.163317 -3.54808
        -2.57826 -1.08165 -0.627099
        0.223057 -2.33834 2.3583
        -0.797874 3.0069 0.580058
        -0.796439 -1.44366 0.656329
        0.494387 -0.916095 -0.779681
        3.15079 -3.86833 -4.79562
        0.514774 2.77002 2.84021
        2.1936 -1.14267 4.71399
        3.17411 5.19629 1.10652
        -1.66289 -1.99122 1.78939
        5.37422 2.49935 2.31144
        -0.554796 0.935373 -0.963819
        0.468808 -4.5017 1.2834
        3.90818 2.10111 -2.40805
        1.98165 2.54732 5.74997
        4.72283 -1.97742 -2.1731
        0.575775 2.54401 0.595093
        0.991172 2.14439 -0.0613869
        0.679281 -1.50931 -2.27382
        -0.614573 -1.28002 -1.16911
        0.914895 -1.73542 -2.89055
        -1.59822 3.32612 -0.647325
        2.41707 -2.97225 0.17703
        2.48514 1.66029 0.822735
        5.91262 -1.01566 -4.40751
        -2.21195 -4.2084 3.01981
        -3.44471 -2.98917 0.135038
        1.27932 2.54404 -1.20606
        -4.58472 1.79087 -2.38069
        0.342507 3.19568 2.53856
        0.697434 -1.86265 2.68385
        -2.72956 0.224273 -0.0696489
        6.28549 5.26108 1.93386
        0.75381 -1.91603 -0.601489
        4.17174 -1.64378 1.5642
        -0.963658 1.34509 -4.06606
        -0.424327 -0.539844 1.47308
        2.33338 0.760547 1.97257
        -1.76814 -5.26001 1.43241
        -0.731076 3.08291 -3.82406
        2.22836 4.90286 -1.8416
        -0.0659943 -0.0901759 1.78718
        2.87404 -3.38228 -0.233273
        -0.59619 -0.300065 -2.66188
        4.22344 3.90745 6.24592
        0.530568 -0.771624 -5.07289
        3.00161 3.202 -2.80451
        -0.0557392 -1.07368 0.585258
        -2.12977 0.327559 -0.087503
        3.59975 -1.295 -1.00218
        2.99155 -1.57077 -1.69194
        -0.145768 -0.055979 0.129918
        -1.1189 5.00278 2.3909
        -1.28506 0.992718 1.31623
        -0.00332956 -1.36323 -3.38687
        3.00382 5.42255 3.08191
        -0.514503 -1.23862 4.4404
        3.56552 0.548106 -5.98168
        3.5132 1.7241 0.734484
        1.1435 -0.497078 5.12424
        4.31171 -3.01903 2.19564
        1.54657 -2.91403 -0.424865
        -0.337845 2.00698 -2.28585
        -0.33051 2.49521 -2.21956
        2.45482 2.4577 4.47043
        1.77457 -1.75229 2.65494
        1.20875 4.80524 -1.43466
        1.78272 -0.0901576 1.73887
        -5.06902 -1.14126 -1.035
        0.374023 3.39145 3.28876
        6.38981 0.95652 6.52873
        -0.897961 -0.574908 0.266737
        0.83199 2.71318 -0.907564
        0.330046 -1.33323 -3.38287
        1.74157 2.37449 -3.0509
        -0.48393 0.220569 2.26859
        4.3936 -4.85585 1.15206
        1.50231 -2.23451 -0.389853
        -1.81227 0.912453 -0.597923
        0.955823 -2.02452 0.872924
        5.18924 -4.19521 -1.40352
        3.40985 -2.39426 -1.04847